LAMMPS (22 Jul 2025 - Update 2)
OMP_NUM_THREADS environment is not set. Defaulting to 1 thread.
  using 1 OpenMP thread(s) per MPI task

# 3D Lennard-Jones melt
# 1) Initialization
units lj
dimension 3
atom_style atomic
boundary p p p
# 2) System definition
region simbox block -20 20 -20 20 -20 20
create_box 2 simbox
Created orthogonal box = (-20 -20 -20) to (20 20 20)
  1 by 1 by 1 MPI processor grid
create_atoms 1 random 1500 34134 simbox overlap 0.3
Created 1500 atoms
  using lattice units in orthogonal box = (-20 -20 -20) to (20 20 20)
  create_atoms CPU = 0.081 seconds
create_atoms 2 random 100 12756 simbox overlap 0.3
Created 100 atoms
  using lattice units in orthogonal box = (-20 -20 -20) to (20 20 20)
  create_atoms CPU = 0.011 seconds
# 3) Settings
mass 1 1.0
mass 2 5.0
pair_style lj/cut 4.0
pair_coeff 1 1 1.0 1.0
pair_coeff 2 2 0.5 3.0
# 4) Monitoring
thermo 10
thermo_style custom step ke pe
# 5) Run

minimize 1.0e-6 1.0e-6 1000 10000
Generated 1 of 1 mixed pair_coeff terms from geometric mixing rule
Neighbor list info ...
  update: every = 1 steps, delay = 0 steps, check = yes
  max neighbors/atom: 2000, page size: 100000
  master list distance cutoff = 4.3
  ghost atom cutoff = 4.3
  binsize = 2.15, bins = 19 19 19
  1 neighbor lists, perpetual/occasional/extra = 1 0 0
  (1) pair lj/cut, perpetual
      attributes: half, newton on
      pair build: half/bin/atomonly/newton
      stencil: half/bin/3d
      bin: standard
Per MPI rank memory allocation (min/avg/max) = 4.279 | 4.279 | 4.279 Mbytes
   Step         KinEng         PotEng    
         0   0              951929.29    
        10   0              3.5701279    
        20   0             -0.29919041   
        30   0             -0.3941731    
        40   0             -0.46170501   
        50   0             -0.51118404   
        60   0             -0.55364542   
        70   0             -0.60105929   
        80   0             -0.63908384   
        90   0             -0.6799505    
       100   0             -0.71603181   
       110   0             -0.74686329   
       120   0             -0.78427168   
       130   0             -0.81793383   
       140   0             -0.85272023   
       150   0             -0.88467529   
       160   0             -0.91905133   
       170   0             -0.94055567   
       180   0             -0.96826868   
       190   0             -0.99526689   
       200   0             -1.0235205    
       210   0             -1.0546118    
       220   0             -1.0885857    
       230   0             -1.1127997    
       240   0             -1.1389554    
       250   0             -1.1691372    
       260   0             -1.1943089    
       270   0             -1.2196439    
       280   0             -1.2428259    
       290   0             -1.261349     
       300   0             -1.2786271    
       310   0             -1.2957215    
       320   0             -1.3085707    
       330   0             -1.3231793    
       340   0             -1.3419587    
       350   0             -1.3630459    
       360   0             -1.3784139    
       370   0             -1.3919535    
       380   0             -1.4040548    
       390   0             -1.4200339    
       400   0             -1.4392621    
       410   0             -1.4525124    
       420   0             -1.4683039    
       430   0             -1.4810466    
       440   0             -1.4938492    
       450   0             -1.506964     
       460   0             -1.5191082    
       470   0             -1.5323546    
       480   0             -1.5411332    
       490   0             -1.5479842    
       500   0             -1.5596297    
       510   0             -1.5704931    
       520   0             -1.5781983    
       530   0             -1.586424     
       540   0             -1.592696     
       550   0             -1.6011967    
       560   0             -1.6092187    
       570   0             -1.6168917    
       580   0             -1.6347843    
       590   0             -1.6464403    
       600   0             -1.6568153    
       610   0             -1.6729961    
       620   0             -1.6852424    
       630   0             -1.694955     
       640   0             -1.7030552    
       650   0             -1.7139375    
       660   0             -1.7240308    
       670   0             -1.7352678    
       680   0             -1.742982     
       690   0             -1.7507699    
       700   0             -1.7560748    
       710   0             -1.762649     
       720   0             -1.7701211    
       730   0             -1.7819023    
       740   0             -1.7909312    
       750   0             -1.800383     
       760   0             -1.810547     
       770   0             -1.8223486    
       780   0             -1.8305968    
       790   0             -1.8375663    
       800   0             -1.8461707    
       810   0             -1.8527712    
       820   0             -1.8602482    
       830   0             -1.8671712    
       840   0             -1.8730859    
       850   0             -1.8788771    
       860   0             -1.8854009    
       870   0             -1.8904802    
       880   0             -1.8963861    
       890   0             -1.9049259    
       900   0             -1.9101198    
       910   0             -1.9169156    
       920   0             -1.9236513    
       930   0             -1.9284375    
       940   0             -1.933747     
       950   0             -1.9384656    
       960   0             -1.9425092    
       970   0             -1.9506596    
       980   0             -1.9574315    
       990   0             -1.966573     
      1000   0             -1.9749736    
Loop time of 0.763529 on 1 procs for 1000 steps with 1600 atoms

98.2% CPU use with 1 MPI tasks x 1 OpenMP threads

Minimization stats:
  Stopping criterion = max iterations
  Energy initial, next-to-last, final = 
      951929.289785733   -1.9744204982741  -1.97497359019848
  Force two-norm initial, final = 7.9345356e+10 12.501082
  Force max component initial, final = 5.4329265e+10 3.4530453
  Final line search alpha, max atom move = 0.017879424 0.06173846
  Iterations, force evaluations = 1000 1969

MPI task timing breakdown:
Section |  min time  |  avg time  |  max time  |%varavg| %total
---------------------------------------------------------------
Pair    | 0.35466    | 0.35466    | 0.35466    |   0.0 | 46.45
Neigh   | 0.23539    | 0.23539    | 0.23539    |   0.0 | 30.83
Comm    | 0.035291   | 0.035291   | 0.035291   |   0.0 |  4.62
Output  | 0.0031576  | 0.0031576  | 0.0031576  |   0.0 |  0.41
Modify  | 0          | 0          | 0          |   0.0 |  0.00
Other   |            | 0.135      |            |       | 17.69

Nlocal:           1600 ave        1600 max        1600 min
Histogram: 1 0 0 0 0 0 0 0 0 0
Nghost:           1246 ave        1246 max        1246 min
Histogram: 1 0 0 0 0 0 0 0 0 0
Neighs:           7877 ave        7877 max        7877 min
Histogram: 1 0 0 0 0 0 0 0 0 0

Total # of neighbors = 7877
Ave neighs/atom = 4.923125
Neighbor list builds = 358
Dangerous builds = 0

# PART B - MOLECULAR DYNAMICS
# 4) Monitoring
thermo 50
thermo_style custom step temp etotal pe ke press
# 5) Run
# 5) Run
fix mynve all nve
fix mylgv all langevin 0.5 0.5 0.1 10917
timestep 0.005
run 15000
Generated 1 of 1 mixed pair_coeff terms from geometric mixing rule
Per MPI rank memory allocation (min/avg/max) = 3.155 | 3.155 | 3.155 Mbytes
   Step          Temp          TotEng         PotEng         KinEng         Press     
      1000   0             -1.9749736     -1.9749736      0             -0.0004684835 
      1050   0.47133137    -0.98950684    -1.696062       0.70655518     0.01623178   
      1100   0.4899084     -0.80438205    -1.5387854      0.73440332     0.016604986  
      1150   0.50194299    -0.72313392    -1.4755778      0.75244392     0.011443849  
      1200   0.4990324     -0.67959269    -1.4276734      0.74808075     0.0096740795 
      1250   0.50446325    -0.65936265    -1.4155846      0.75622194     0.0089093963 
      1300   0.49159942    -0.64881248    -1.3857507      0.73693825     0.0068588326 
      1350   0.496164      -0.60895039    -1.3527312      0.74378085     0.009644171  
      1400   0.50132825    -0.57815041    -1.3296728      0.75152238     0.0080460936 
      1450   0.49872607    -0.56481434    -1.3124359      0.74762155     0.0067352314 
      1500   0.49318975    -0.57785654    -1.3171788      0.73932225     0.0058730086 
      1550   0.49908159    -0.54944288    -1.2975974      0.7481545      0.008055973  
      1600   0.49815251    -0.53187404    -1.2786358      0.74676175     0.0057549595 
      1650   0.49484624    -0.51506869    -1.2568741      0.74180544     0.0072419984 
      1700   0.49649491    -0.4990846     -1.2433615      0.7442769      0.0051513163 
      1750   0.49695288    -0.47900523    -1.2239687      0.74496343     0.0067085188 
      1800   0.50281162    -0.46417456    -1.2179206      0.75374604     0.0072329902 
      1850   0.49242136    -0.48484493    -1.2230153      0.73817039     0.0055670829 
      1900   0.49354381    -0.4696577     -1.2095107      0.73985302     0.0040440988 
      1950   0.49474304    -0.46302956    -1.2046803      0.74165075     0.0056381691 
      2000   0.51064585    -0.42999641    -1.1954865      0.76549005     0.0055288453 
      2050   0.50723692    -0.43287467    -1.1932545      0.76037985     0.0046217466 
      2100   0.50934563    -0.41669586    -1.1802368      0.76354093     0.0058894057 
      2150   0.48635642    -0.44910175    -1.1781804      0.72907867     0.0054964203 
      2200   0.49462431    -0.4187445     -1.1602173      0.74147275     0.0054668288 
      2250   0.50441817    -0.40373617    -1.1598905      0.75615437     0.0053053617 
      2300   0.49510359    -0.3984678     -1.140659       0.74219123     0.0072772296 
      2350   0.49729003    -0.40192698    -1.1473958      0.74546883     0.0057472313 
      2400   0.49678002    -0.38771147    -1.1324158      0.7447043      0.0068076673 
      2450   0.49734763    -0.37390946    -1.1194646      0.74555518     0.0071054867 
      2500   0.49975862    -0.3601496     -1.109319       0.74916941     0.0057422163 
      2550   0.48446034    -0.37096372    -1.0972         0.72623633     0.0063593031 
      2600   0.5157634     -0.32915166    -1.1023132      0.77316157     0.0056748291 
      2650   0.49506879    -0.36876154    -1.1109006      0.74213906     0.0045899016 
      2700   0.49276523    -0.35817015    -1.096856       0.73868588     0.0061496973 
      2750   0.50284549    -0.36267656    -1.1164734      0.75379681     0.0063932219 
      2800   0.51287906    -0.34514855    -1.1139863      0.76883776     0.0055855965 
      2850   0.50034445    -0.3541674     -1.104215       0.7500476      0.0047538001 
      2900   0.49214806    -0.3554507     -1.0932114      0.7377607      0.0063326909 
      2950   0.50666599    -0.31895649    -1.0784805      0.75952399     0.0057071321 
      3000   0.50670334    -0.31735667    -1.0769366      0.75957997     0.004526463  
      3050   0.48947475    -0.35598044    -1.0897337      0.73375325     0.0043137978 
      3100   0.49440529    -0.33025992    -1.0714043      0.74114443     0.0045102035 
      3150   0.48458291    -0.34578924    -1.0722093      0.72642007     0.005705961  
      3200   0.49131514    -0.34804287    -1.084555       0.7365121      0.005406728  
      3250   0.50689596    -0.31794493    -1.0778137      0.75986873     0.0042308628 
      3300   0.49597969    -0.33660155    -1.0801061      0.74350455     0.005333987  
      3350   0.503012      -0.31723039    -1.0712768      0.75404643     0.0067172556 
      3400   0.50076386    -0.30568371    -1.05636        0.75067632     0.0059144147 
      3450   0.50490981    -0.30443056    -1.0613219      0.75689136     0.006945667  
      3500   0.50821273    -0.30780348    -1.0696461      0.76184265     0.0046500848 
      3550   0.48634169    -0.32970633    -1.0587629      0.72905659     0.0050310489 
      3600   0.49106801    -0.30478136    -1.040923       0.73614164     0.0060427533 
      3650   0.49846208    -0.30529082    -1.0525166      0.74722581     0.0074164005 
      3700   0.50759858    -0.28455187    -1.0454739      0.760922       0.0048940961 
      3750   0.49257745    -0.29334425    -1.0317486      0.73840438     0.005084253  
      3800   0.5102905     -0.27260767    -1.037565       0.76495735     0.0053002934 
      3850   0.50196768    -0.28835154    -1.0408325      0.75248093     0.0038363719 
      3900   0.50123853    -0.25997027    -1.0113582      0.75138788     0.0069705113 
      3950   0.50021231    -0.27549657    -1.0253461      0.74984952     0.005188859  
      4000   0.49672284    -0.27882399    -1.0234426      0.74461859     0.0039442706 
      4050   0.47974697    -0.28797485    -1.0071455      0.71917069     0.004029024  
      4100   0.50441729    -0.25195182    -1.0081049      0.75615304     0.0064119257 
      4150   0.48050607    -0.28929278    -1.0096014      0.72030863     0.003108276  
      4200   0.51489021    -0.22945757    -1.0013102      0.77185261     0.0047742976 
      4250   0.50566929    -0.2500767     -1.0081066      0.75802988     0.0038789798 
      4300   0.49698223    -0.25912982    -1.0041373      0.74500743     0.0038256455 
      4350   0.49447127    -0.26632466    -1.007568       0.74124334     0.0037345725 
      4400   0.49537269    -0.26200007    -1.0045947      0.74259462     0.0047201131 
      4450   0.49711263    -0.26111112    -1.006314       0.7452029      0.0043024101 
      4500   0.51524073    -0.23712518    -1.0095032      0.77237806     0.0061033884 
      4550   0.50806026    -0.25320836    -1.0148225      0.76161409     0.005449337  
      4600   0.49054371    -0.26980798    -1.0051637      0.73535568     0.004549674  
      4650   0.47976642    -0.28875976    -1.0079596      0.71919985     0.0039741396 
      4700   0.47845607    -0.27000775    -0.9872433      0.71723555     0.0050395622 
      4750   0.50797145    -0.22852615    -0.99000711     0.76148096     0.0049144917 
      4800   0.51034886    -0.22343334    -0.98847819     0.76504484     0.0053770128 
      4850   0.51265186    -0.21526146    -0.98375865     0.76849719     0.0052600769 
      4900   0.48421439    -0.26549898    -0.99136661     0.72586763     0.0037132386 
      4950   0.50235709    -0.23572765    -0.98879233     0.75306467     0.0061642947 
      5000   0.49868455    -0.24452005    -0.99207935     0.7475593      0.0058236573 
      5050   0.4989151     -0.24910455    -0.99700946     0.74790491     0.005294706  
      5100   0.48967345    -0.25793736    -0.99198847     0.73405111     0.0056442683 
      5150   0.48882748    -0.25758638    -0.99036932     0.73278294     0.0038881381 
      5200   0.51479337    -0.21503601    -0.98674345     0.77170744     0.0058152125 
      5250   0.49021027    -0.25319363    -0.98804947     0.73485584     0.0036684498 
      5300   0.48398672    -0.24922463    -0.97475098     0.72552634     0.0019757522 
      5350   0.48745101    -0.23300683    -0.96372637     0.73071954     0.0033074025 
      5400   0.50279189    -0.20933271    -0.96304918     0.75371647     0.0036464296 
      5450   0.50852454    -0.20847662    -0.97078669     0.76231007     0.0035815695 
      5500   0.49478497    -0.22760495    -0.96931853     0.74171359     0.0043353627 
      5550   0.50435902    -0.21567029    -0.97173598     0.75606569     0.0050431785 
      5600   0.48895266    -0.23368697    -0.96665757     0.7329706      0.0049454856 
      5650   0.50690986    -0.19931632    -0.95920587     0.75988956     0.0070359746 
      5700   0.50344702    -0.21347433    -0.96817287     0.75469855     0.0061418246 
      5750   0.51386825    -0.20268734    -0.97300796     0.77032062     0.0047729245 
      5800   0.49181231    -0.24216658    -0.97942397     0.73725739     0.0034071416 
      5850   0.48960739    -0.24284778    -0.97679986     0.73395208     0.0060596238 
      5900   0.50330098    -0.22389584    -0.97837547     0.75447963     0.0047137795 
      5950   0.47961229    -0.25243078    -0.97139957     0.7189688      0.0051486245 
      6000   0.49570008    -0.2346384     -0.9777238      0.7430854      0.0048441373 
      6050   0.4912306     -0.22971296    -0.96609833     0.73638537     0.0049173821 
      6100   0.50486294    -0.2184157     -0.9752368      0.7568211      0.0045862939 
      6150   0.50240524    -0.20824104    -0.96137789     0.75313685     0.0047886495 
      6200   0.49200174    -0.21951508    -0.95705644     0.73754136     0.004565137  
      6250   0.50889602    -0.20328646    -0.96615341     0.76286694     0.0049362069 
      6300   0.52101378    -0.18222338    -0.9632556      0.78103222     0.0051530354 
      6350   0.49722943    -0.2162974     -0.96167539     0.74537799     0.0050727093 
      6400   0.49580334    -0.20934873    -0.95258893     0.7432402      0.005251058  
      6450   0.51153872    -0.19366347    -0.96049199     0.76682851     0.0042035886 
      6500   0.51306297    -0.18687375    -0.95598722     0.76911346     0.0070593718 
      6550   0.49790201    -0.21507129    -0.96145752     0.74638622     0.0077181031 
      6600   0.49866485    -0.21670676    -0.96423654     0.74752978     0.0043352293 
      6650   0.5035884     -0.19509239    -0.95000288     0.75491049     0.0052073457 
      6700   0.49599697    -0.21983453    -0.96336499     0.74353046     0.0041683884 
      6750   0.49779124    -0.21449414    -0.96071433     0.74622018     0.0051354331 
      6800   0.48097324    -0.2372228     -0.95823174     0.72100895     0.0051204421 
      6850   0.50685816    -0.20035919    -0.96017125     0.75981206     0.0063202836 
      6900   0.49691579    -0.21800933    -0.96291715     0.74490782     0.0051214641 
      6950   0.50281441    -0.20895243    -0.96270265     0.75375022     0.0072927453 
      7000   0.51623665    -0.19400818    -0.96787918     0.773871       0.0045546737 
      7050   0.50929562    -0.19068922    -0.95415518     0.76346596     0.0051147292 
      7100   0.50025548    -0.21175378    -0.96166801     0.74991423     0.0032875705 
      7150   0.50339006    -0.20145668    -0.95606984     0.75461316     0.0052084554 
      7200   0.50417576    -0.18754885    -0.94333983     0.75579098     0.0056171334 
      7250   0.51081179    -0.18681027    -0.95254907     0.7657388      0.0041059305 
      7300   0.49863544    -0.20624269    -0.95372838     0.74748569     0.0041629642 
      7350   0.50088112    -0.1965359     -0.947388       0.7508521      0.0041436891 
      7400   0.51064245    -0.17401334    -0.93949828     0.76548494     0.0036297087 
      7450   0.50282474    -0.18418817    -0.93795388     0.75376571     0.0049765977 
      7500   0.49656134    -0.20690037    -0.95127685     0.74437648     0.0042905523 
      7550   0.50369926    -0.19576839    -0.95084507     0.75507668     0.0052651204 
      7600   0.4896015     -0.21958387    -0.95352712     0.73394325     0.004075482  
      7650   0.49751522    -0.20967516    -0.95548156     0.7458064      0.0069065317 
      7700   0.50230085    -0.20920305    -0.96218342     0.75298037     0.005531904  
      7750   0.49345456    -0.22008348    -0.9598027      0.73971922     0.0056375201 
      7800   0.50054801    -0.22018986    -0.97054261     0.75035275     0.0033415347 
      7850   0.48765649    -0.22455287    -0.95558043     0.73102756     0.0035956541 
      7900   0.49212057    -0.22740585    -0.96512534     0.73771949     0.0035996454 
      7950   0.50609333    -0.18905196    -0.94771749     0.75866553     0.0049317389 
      8000   0.48126991    -0.22246622    -0.94391989     0.72145367     0.0054066898 
      8050   0.51291859    -0.17150461    -0.94040164     0.76889702     0.0039781551 
      8100   0.50608868    -0.19932667    -0.95798524     0.75865857     0.0043756681 
      8150   0.5006412     -0.21376829    -0.96426075     0.75049246     0.0054917938 
      8200   0.49977582    -0.21254134    -0.96173652     0.74919519     0.0066402529 
      8250   0.4942593     -0.23415682    -0.97508239     0.74092557     0.0043892037 
      8300   0.5061034     -0.21169984    -0.97038047     0.75868063     0.0045700365 
      8350   0.50097248    -0.21209852    -0.96308757     0.75098906     0.0026854159 
      8400   0.49634268    -0.21416703    -0.95821573     0.7440487      0.0055073961 
      8450   0.5018635     -0.20485746    -0.9571822      0.75232475     0.0055724792 
      8500   0.49586368    -0.20639242    -0.94972307     0.74333064     0.0047847445 
      8550   0.48729782    -0.21726059    -0.94775048     0.7304899      0.0054422565 
      8600   0.48880482    -0.21867815    -0.95142713     0.73274898     0.0049620333 
      8650   0.51093757    -0.1838232     -0.94975055     0.76592735     0.0057021459 
      8700   0.49162747    -0.21402256    -0.95100286     0.7369803      0.0053298931 
      8750   0.49581658    -0.2117237     -0.95498374     0.74326004     0.0044578994 
      8800   0.51501157    -0.18025007    -0.95228461     0.77203453     0.0054855171 
      8850   0.47493339    -0.245823      -0.95777783     0.71195484     0.0045670913 
      8900   0.48135662    -0.22893792    -0.95052157     0.72158365     0.0032856267 
      8950   0.48974195    -0.22460934    -0.95876314     0.7341538      0.0054995534 
      9000   0.50656095    -0.1949178     -0.95428432     0.75936652     0.0062083205 
      9050   0.50077053    -0.19514736    -0.94583367     0.75068632     0.0058131227 
      9100   0.49452935    -0.22041377    -0.96174418     0.7413304      0.0055199344 
      9150   0.49140014    -0.22175939    -0.95839891     0.73663952     0.0058788528 
      9200   0.50457066    -0.20669919    -0.96308214     0.75638295     0.0050709267 
      9250   0.49727799    -0.20593156    -0.95138235     0.74545079     0.0049737888 
      9300   0.4989855     -0.21215888    -0.96016934     0.74801046     0.0041909381 
      9350   0.50035453    -0.21346635    -0.96352906     0.75006271     0.0060056485 
      9400   0.49401502    -0.21408197    -0.95464136     0.7405594      0.0064746485 
      9450   0.51246256    -0.18949324    -0.95770665     0.76821341     0.0034910286 
      9500   0.49671891    -0.21599013    -0.96060282     0.74461269     0.0037891585 
      9550   0.49854255    -0.21917888    -0.96652532     0.74734644     0.0037364929 
      9600   0.51261298    -0.20191123    -0.97035012     0.76843889     0.0033842799 
      9650   0.51192803    -0.19847175    -0.96588387     0.76741211     0.0031771761 
      9700   0.4982382     -0.2173922     -0.96428241     0.7468902      0.003416648  
      9750   0.5161033     -0.17319697    -0.94686806     0.7736711      0.0060252926 
      9800   0.50645       -0.20309748    -0.96229768     0.7592002      0.0028545989 
      9850   0.51427558    -0.19834983    -0.96928107     0.77093124     0.004103348  
      9900   0.48988293    -0.22914886    -0.96351399     0.73436513     0.0036412943 
      9950   0.5051882     -0.20304919    -0.96035787     0.75730869     0.0038310559 
     10000   0.50558994    -0.17803351    -0.93594443     0.75791093     0.0044549209 
     10050   0.49850834    -0.19959752    -0.94689268     0.74729515     0.0042319762 
     10100   0.51493562    -0.1704145     -0.94233518     0.77192068     0.006182724  
     10150   0.49112372    -0.20535611    -0.94158127     0.73622515     0.0055682634 
     10200   0.49052475    -0.20894101    -0.94426826     0.73532726     0.0062445602 
     10250   0.52021748    -0.17651383    -0.95635234     0.77983851     0.0057807945 
     10300   0.51815371    -0.18473659    -0.96148138     0.77674479     0.0047174425 
     10350   0.49538554    -0.21517712    -0.95779101     0.74261389     0.0028083804 
     10400   0.51742852    -0.18832202    -0.96397971     0.7756577      0.0036947604 
     10450   0.50694757    -0.2134227     -0.97336878     0.75994608     0.0050076371 
     10500   0.50979107    -0.20326533    -0.96747401     0.76420867     0.0053594759 
     10550   0.48524015    -0.24005675    -0.96746206     0.72740531     0.0044593944 
     10600   0.51742987    -0.18860159    -0.9642613      0.77565971     0.0054968215 
     10650   0.50239431    -0.2266273     -0.97974777     0.75312047     0.0044956946 
     10700   0.49308379    -0.22964971    -0.96881314     0.73916342     0.0065595675 
     10750   0.50476846    -0.21779781    -0.97447728     0.75667948     0.0040848379 
     10800   0.49826326    -0.219696      -0.96662377     0.74692776     0.0030145008 
     10850   0.50304782    -0.19959608    -0.95369621     0.75410012     0.0049624416 
     10900   0.48945376    -0.21704624    -0.95076802     0.73372178     0.0050341106 
     10950   0.50674106    -0.18906336    -0.94869988     0.75963652     0.0042682086 
     11000   0.49177691    -0.20117607    -0.93838039     0.73720432     0.0033955439 
     11050   0.50581764    -0.19156247    -0.94981472     0.75825225     0.0041026738 
     11100   0.52154709    -0.1718298     -0.95366147     0.78183168     0.0057368904 
     11150   0.5050289     -0.20005854    -0.95712842     0.75706988     0.0081460686 
     11200   0.49612242    -0.2248689     -0.96858742     0.74371852     0.0039170413 
     11250   0.50841291    -0.19457665    -0.95671937     0.76214272     0.0048722893 
     11300   0.50142487    -0.21605895    -0.96772616     0.75166721     0.0055360755 
     11350   0.50096199    -0.21713381    -0.96810715     0.75097334     0.0073568809 
     11400   0.50573979    -0.21051338    -0.96864894     0.75813555     0.0067115004 
     11450   0.50984183    -0.19317022    -0.957455       0.76428477     0.0058364778 
     11500   0.5021639     -0.20676111    -0.95953618     0.75277507     0.0056171702 
     11550   0.51234266    -0.20180884    -0.96984251     0.76803367     0.0036732239 
     11600   0.4952737     -0.22195024    -0.96439646     0.74244623     0.0034570441 
     11650   0.4862401     -0.23959742    -0.96850172     0.7289043      0.0036259242 
     11700   0.49599059    -0.22843591    -0.97195681     0.7435209      0.0043438326 
     11750   0.5088436     -0.20657791    -0.96936627     0.76278836     0.0063479846 
     11800   0.49239426    -0.23127715    -0.96940692     0.73812977     0.0043615134 
     11850   0.49081992    -0.22811104    -0.96388078     0.73576974     0.0045369476 
     11900   0.5076903     -0.20712205    -0.96818154     0.76105949     0.0038456665 
     11950   0.48851403    -0.22385361    -0.95616667     0.73231306     0.0034140852 
     12000   0.5236147     -0.18169262    -0.96662378     0.78493117     0.0055185079 
     12050   0.49865831    -0.22644886    -0.97396884     0.74751997     0.0032925305 
     12100   0.50289527    -0.21968448    -0.97355592     0.75387144     0.0036475221 
     12150   0.52339013    -0.20223758    -0.98683209     0.78459452     0.0035262118 
     12200   0.48847223    -0.25521421    -0.98746462     0.73225041     0.0029453302 
     12250   0.49677833    -0.23325989    -0.97796166     0.74470177     0.0055180886 
     12300   0.49349538    -0.23375512    -0.97353554     0.73978042     0.0045409205 
     12350   0.50061791    -0.22809069    -0.97854821     0.75045753     0.0049908383 
     12400   0.49384447    -0.23932061    -0.97962434     0.74030373     0.0040838193 
     12450   0.49465811    -0.25003082    -0.99155423     0.74152342     0.0024024563 
     12500   0.48833589    -0.24865929    -0.98070531     0.73204602     0.0061620926 
     12550   0.48876944    -0.24593666    -0.9786326      0.73269595     0.0059112223 
     12600   0.49303885    -0.25352973    -0.99262577     0.73909605     0.0022426629 
     12650   0.48333287    -0.24615985    -0.97070604     0.72454619     0.0037474476 
     12700   0.49261698    -0.22290925    -0.9613729      0.73846365     0.0057890428 
     12750   0.50522779    -0.21886478    -0.97623282     0.75736804     0.0026912982 
     12800   0.50148657    -0.22044661    -0.97220632     0.75175971     0.0043568106 
     12850   0.50022967    -0.22512794    -0.97500348     0.74987554     0.0038577582 
     12900   0.50625661    -0.22331145    -0.98222174     0.7589103      0.0057973417 
     12950   0.50501817    -0.22891479    -0.98596859     0.7570538      0.0035450935 
     13000   0.50264069    -0.23432394    -0.98781375     0.75348981     0.0048677828 
     13050   0.50463174    -0.22548692    -0.98196144     0.75647452     0.0046833506 
     13100   0.49406604    -0.25152767    -0.99216354     0.74063587     0.0042512632 
     13150   0.50386276    -0.22425302    -0.97957479     0.75532177     0.0059314682 
     13200   0.49305527    -0.25189046    -0.99101113     0.73912067     0.0029914618 
     13250   0.49492077    -0.25541664    -0.99733381     0.74191717     0.0050563215 
     13300   0.49707363    -0.25728647    -1.0024309      0.74514444     0.0046500575 
     13350   0.50612084    -0.23776864    -0.99647541     0.75870677     0.0039751168 
     13400   0.49703493    -0.24725027    -0.99233669     0.74508642     0.005385857  
     13450   0.48587858    -0.27537697    -1.0037393      0.72836237     0.0051939118 
     13500   0.5079621     -0.22945153    -0.99091846     0.76146693     0.0062627884 
     13550   0.4965076     -0.25300979    -0.99730571     0.74429593     0.0034019432 
     13600   0.51894842    -0.21875725    -0.99669336     0.77793612     0.0042617186 
     13650   0.51330339    -0.23865607    -1.0081299      0.76947386     0.0041745849 
     13700   0.51648032    -0.21224342    -0.9864797      0.77423628     0.0040700425 
     13750   0.49802477    -0.24568491    -0.99225518     0.74657026     0.0039345742 
     13800   0.49405897    -0.25278029    -0.99340557     0.74062528     0.0036699137 
     13850   0.50527353    -0.24458977    -1.0020264      0.7574366      0.0043646355 
     13900   0.51877052    -0.22518174    -1.0028512      0.77766943     0.0045117089 
     13950   0.49026608    -0.24566628    -0.98060577     0.7349395      0.0035663765 
     14000   0.4977639     -0.24150035    -0.98767955     0.7461792      0.0021563218 
     14050   0.5012186     -0.23858087    -0.98993888     0.75135801     0.0045549402 
     14100   0.48892754    -0.27218284    -1.0051158      0.73293294     0.0039469386 
     14150   0.50191336    -0.2444362     -0.9968357      0.7523995      0.0048176523 
     14200   0.49579157    -0.26094792    -1.0041705      0.74322256     0.006518255  
     14250   0.4976793     -0.26605347    -1.0121059      0.74605238     0.0039293212 
     14300   0.5047368     -0.25342865    -1.0100607      0.75663201     0.0031635058 
     14350   0.50949726    -0.25866892    -1.0224372      0.76376824     0.0057708947 
     14400   0.48165857    -0.30118927    -1.0232256      0.7220363      0.0041957014 
     14450   0.50918092    -0.26619484    -1.0294889      0.76329402     0.0038196306 
     14500   0.49315192    -0.29489821    -1.0341638      0.73926555     0.0045027648 
     14550   0.50590873    -0.27998722    -1.038376       0.7583888      0.0043203305 
     14600   0.50855633    -0.28269992    -1.0450576      0.76235772     0.0051448085 
     14650   0.4982432     -0.30180632    -1.048704       0.7468977      0.0043345873 
     14700   0.50302235    -0.27555907    -1.029621       0.75406194     0.0044532732 
     14750   0.50937226    -0.25825441    -1.0218353      0.76358086     0.0058519261 
     14800   0.50038163    -0.26739928    -1.0175026      0.75010334     0.0044359397 
     14850   0.50400514    -0.26634694    -1.0218821      0.75553521     0.0039630091 
     14900   0.52102795    -0.24552644    -1.0265799      0.78105347     0.0040992351 
     14950   0.50337948    -0.2702402     -1.0248375      0.7545973      0.0045521843 
     15000   0.50610503    -0.26660305    -1.0252861      0.75868307     0.0046933403 
     15050   0.50216247    -0.26893626    -1.0217092      0.75277293     0.0056255126 
     15100   0.49742291    -0.28185726    -1.0275253      0.74566803     0.0030817652 
     15150   0.49479086    -0.29319484    -1.0349173      0.74172243     0.0044473332 
     15200   0.51266686    -0.26858334    -1.037103       0.76851967     0.0044888066 
     15250   0.4964673     -0.29718222    -1.0414177      0.74423551     0.006074607  
     15300   0.48909858    -0.3108194     -1.0440087      0.73318934     0.0056336364 
     15350   0.49632866    -0.29042327    -1.034451       0.74402768     0.0072248713 
     15400   0.49994271    -0.29178698    -1.0412323      0.74944536     0.0048129786 
     15450   0.51715735    -0.25098527    -1.0262365      0.77525119     0.0044214914 
     15500   0.49914907    -0.28207579    -1.0303314      0.74825565     0.0043718842 
     15550   0.4864902     -0.295774      -1.0250532      0.72927922     0.0055159745 
     15600   0.51729035    -0.2461849     -1.0216355      0.77545057     0.0057546851 
     15650   0.49989727    -0.27545548    -1.0248327      0.74937725     0.0061401337 
     15700   0.4835793     -0.29938049    -1.0242961      0.7249156      0.005635055  
     15750   0.50013168    -0.27736705    -1.0270957      0.74972865     0.0038134944 
     15800   0.49914221    -0.27720498    -1.0254504      0.74824537     0.0054229227 
     15850   0.496133      -0.29424638    -1.0379808      0.74373438     0.0053616929 
     15900   0.50084269    -0.29388694    -1.0446814      0.75079449     0.0050901119 
     15950   0.50074403    -0.30026125    -1.0509079      0.7506466      0.0052056408 
     16000   0.49577109    -0.30497579    -1.0481676      0.74319185     0.0041720685 
Loop time of 4.43543 on 1 procs for 15000 steps with 1600 atoms

Performance: 1460964.648 tau/day, 3381.863 timesteps/s, 5.411 Matom-step/s
95.8% CPU use with 1 MPI tasks x 1 OpenMP threads

MPI task timing breakdown:
Section |  min time  |  avg time  |  max time  |%varavg| %total
---------------------------------------------------------------
Pair    | 1.9277     | 1.9277     | 1.9277     |   0.0 | 43.46
Neigh   | 0.85905    | 0.85905    | 0.85905    |   0.0 | 19.37
Comm    | 0.18717    | 0.18717    | 0.18717    |   0.0 |  4.22
Output  | 0.010793   | 0.010793   | 0.010793   |   0.0 |  0.24
Modify  | 1.3087     | 1.3087     | 1.3087     |   0.0 | 29.50
Other   |            | 0.142      |            |       |  3.20

Nlocal:           1600 ave        1600 max        1600 min
Histogram: 1 0 0 0 0 0 0 0 0 0
Nghost:           1266 ave        1266 max        1266 min
Histogram: 1 0 0 0 0 0 0 0 0 0
Neighs:           9685 ave        9685 max        9685 min
Histogram: 1 0 0 0 0 0 0 0 0 0

Total # of neighbors = 9685
Ave neighs/atom = 6.053125
Neighbor list builds = 1308
Dangerous builds = 0


Total wall time: 0:00:05
