LAMMPS (22 Jul 2025 - Update 2)
OMP_NUM_THREADS environment is not set. Defaulting to 1 thread.
  using 1 OpenMP thread(s) per MPI task

# 3D Lennard-Jones melt
# 1) Initialization
units lj
dimension 3
atom_style atomic
boundary p p p
# 2) System definition
region simbox block -20 20 -20 20 -20 20
create_box 2 simbox
Created orthogonal box = (-20 -20 -20) to (20 20 20)
  1 by 1 by 1 MPI processor grid
create_atoms 1 random 1500 34134 simbox overlap 0.3
Created 1500 atoms
  using lattice units in orthogonal box = (-20 -20 -20) to (20 20 20)
  create_atoms CPU = 0.040 seconds
create_atoms 2 random 100 12756 simbox overlap 0.3
Created 100 atoms
  using lattice units in orthogonal box = (-20 -20 -20) to (20 20 20)
  create_atoms CPU = 0.006 seconds
# 3) Settings
mass 1 1.0
mass 2 5.0
pair_style lj/cut 4.0
pair_coeff 1 1 1.0 1.0
pair_coeff 2 2 0.5 3.0
# 4) Monitoring
thermo 10
thermo_style custom step etotal press
# 5) Run

minimize 1.0e-6 1.0e-6 1000 10000
Generated 1 of 1 mixed pair_coeff terms from geometric mixing rule
Neighbor list info ...
  update: every = 1 steps, delay = 0 steps, check = yes
  max neighbors/atom: 2000, page size: 100000
  master list distance cutoff = 4.3
  ghost atom cutoff = 4.3
  binsize = 2.15, bins = 19 19 19
  1 neighbor lists, perpetual/occasional/extra = 1 0 0
  (1) pair lj/cut, perpetual
      attributes: half, newton on
      pair build: half/bin/atomonly/newton
      stencil: half/bin/3d
      bin: standard
Per MPI rank memory allocation (min/avg/max) = 4.279 | 4.279 | 4.279 Mbytes
   Step         TotEng         Press     
         0   951929.29      95195.517    
        10   3.5701279      0.41939855   
        20  -0.29919041    -0.0039060286 
        30  -0.3941731     -0.0037206356 
        40  -0.46170501    -0.0035160833 
        50  -0.51118404    -0.0030873905 
        60  -0.55364542    -0.0023932664 
        70  -0.60105929    -0.0028490977 
        80  -0.63908384    -0.0024805522 
        90  -0.6799505     -0.0024682149 
       100  -0.71603181    -0.0024785996 
       110  -0.74686329    -0.0020756756 
       120  -0.78427168    -0.0022599663 
       130  -0.81793383    -0.0021402168 
       140  -0.85272023    -0.0019398829 
       150  -0.88467529    -0.0018319299 
       160  -0.91905133    -0.0019237296 
       170  -0.94055567    -0.0018633498 
       180  -0.96826868    -0.0016577128 
       190  -0.99526689    -0.0018052075 
       200  -1.0235205     -0.0018914647 
       210  -1.0546118     -0.0019956944 
       220  -1.0885857     -0.0015798317 
       230  -1.1127997     -0.0014570461 
       240  -1.1389554     -0.0015397531 
       250  -1.1691372     -0.0014131235 
       260  -1.1943089     -0.0014029966 
       270  -1.2196439     -0.0014691719 
       280  -1.2428259     -0.0012700722 
       290  -1.261349      -0.00097831204
       300  -1.2786271     -0.0012390444 
       310  -1.2957215     -0.00095558446
       320  -1.3085707     -0.0010073447 
       330  -1.3231793     -0.0010783556 
       340  -1.3419587     -0.0011236128 
       350  -1.3630459     -0.0010872142 
       360  -1.3784139     -0.001310331  
       370  -1.3919535     -0.0011581315 
       380  -1.4040548     -0.0012816065 
       390  -1.4200339     -0.00093064404
       400  -1.4392621     -0.0010210565 
       410  -1.4525124     -0.00083841793
       420  -1.4683039     -0.0009632739 
       430  -1.4810466     -0.0010544462 
       440  -1.4938492     -0.0010351559 
       450  -1.506964      -0.0011656848 
       460  -1.5191082     -0.00099604123
       470  -1.5323546     -0.00092616845
       480  -1.5411332     -0.00086393935
       490  -1.5479842     -0.0010280814 
       500  -1.5596297     -0.00092563049
       510  -1.5704931     -0.00078379484
       520  -1.5781983     -0.00072326013
       530  -1.586424      -0.00070277726
       540  -1.592696      -0.00073184755
       550  -1.6011967     -0.00098941707
       560  -1.6092187     -0.00075771436
       570  -1.6168917     -0.00066165124
       580  -1.6347843     -0.00073345472
       590  -1.6464403     -0.00074796534
       600  -1.6568153     -0.00077675993
       610  -1.6729961     -0.00064216616
       620  -1.6852424     -0.00082669251
       630  -1.694955      -0.00057811623
       640  -1.7030552     -0.00063648886
       650  -1.7139375     -0.00068914813
       660  -1.7240308     -0.00082018965
       670  -1.7352678     -0.00065694935
       680  -1.742982      -0.00077780016
       690  -1.7507699     -0.0006135736 
       700  -1.7560748     -0.00056357019
       710  -1.762649      -0.00064225072
       720  -1.7701211     -0.00068353118
       730  -1.7819023     -0.00065891404
       740  -1.7909312     -0.00066134893
       750  -1.800383      -0.00064500071
       760  -1.810547      -0.00066839245
       770  -1.8223486     -0.00059408908
       780  -1.8305968     -0.00056272978
       790  -1.8375663     -0.00045749042
       800  -1.8461707     -0.00043939564
       810  -1.8527712     -0.00048774701
       820  -1.8602482     -0.00045319334
       830  -1.8671712     -0.00038424282
       840  -1.8730859     -0.00041667702
       850  -1.8788771     -0.00047340001
       860  -1.8854009     -0.00044729364
       870  -1.8904802     -0.00029317357
       880  -1.8963861     -0.00044920562
       890  -1.9049259     -0.00031627471
       900  -1.9101198     -0.00043984915
       910  -1.9169156     -0.00052384394
       920  -1.9236513     -0.00042851136
       930  -1.9284375     -0.00043853081
       940  -1.933747      -0.00048591008
       950  -1.9384656     -0.00045539597
       960  -1.9425092     -0.00064204948
       970  -1.9506596     -0.00053936827
       980  -1.9574315     -0.00062409015
       990  -1.966573      -0.0005211393 
      1000  -1.9749736     -0.0004684835 
Loop time of 0.341018 on 1 procs for 1000 steps with 1600 atoms

91.6% CPU use with 1 MPI tasks x 1 OpenMP threads

Minimization stats:
  Stopping criterion = max iterations
  Energy initial, next-to-last, final = 
      951929.289785733   -1.9744204982741  -1.97497359019848
  Force two-norm initial, final = 7.9345356e+10 12.501082
  Force max component initial, final = 5.4329265e+10 3.4530453
  Final line search alpha, max atom move = 0.017879424 0.06173846
  Iterations, force evaluations = 1000 1969

MPI task timing breakdown:
Section |  min time  |  avg time  |  max time  |%varavg| %total
---------------------------------------------------------------
Pair    | 0.14219    | 0.14219    | 0.14219    |   0.0 | 41.70
Neigh   | 0.12843    | 0.12843    | 0.12843    |   0.0 | 37.66
Comm    | 0.015148   | 0.015148   | 0.015148   |   0.0 |  4.44
Output  | 0.0006573  | 0.0006573  | 0.0006573  |   0.0 |  0.19
Modify  | 0          | 0          | 0          |   0.0 |  0.00
Other   |            | 0.05459    |            |       | 16.01

Nlocal:           1600 ave        1600 max        1600 min
Histogram: 1 0 0 0 0 0 0 0 0 0
Nghost:           1246 ave        1246 max        1246 min
Histogram: 1 0 0 0 0 0 0 0 0 0
Neighs:           7877 ave        7877 max        7877 min
Histogram: 1 0 0 0 0 0 0 0 0 0

Total # of neighbors = 7877
Ave neighs/atom = 4.923125
Neighbor list builds = 358
Dangerous builds = 0

# PART B - MOLECULAR DYNAMICS
# 4) Monitoring
thermo 50
thermo_style custom step temp etotal pe ke press
# 5) Run
fix mynve all nve
timestep 0.005
run 50000
Generated 1 of 1 mixed pair_coeff terms from geometric mixing rule
Per MPI rank memory allocation (min/avg/max) = 3.155 | 3.155 | 3.155 Mbytes
   Step          Temp          TotEng         PotEng         KinEng         Press     
      1000   0             -1.9749736     -1.9749736      0             -0.0004684835 
      1050   0.00059079784 -1.9749755     -1.9758612      0.00088564289 -0.00041693126
      1100   0.0020220426  -1.9749922     -1.9780233      0.0030311683  -0.00030376206
      1150   0.0034675621  -1.9750201     -1.9802182      0.0051980923  -0.00021132044
      1200   0.0037787207  -1.975029      -1.9806935      0.0056645384  -0.00012862871
      1250   0.00444298    -1.9750357     -1.981696       0.0066603047  -0.00039014362
      1300   0.0054860549  -1.9750491     -1.983273       0.0082239391  -0.00013314926
      1350   0.0067276164  -1.9752822     -1.9853673      0.010085117   -0.00054481017
      1400   0.0083343104  -1.9752954     -1.9877891      0.012493652   -0.00064168249
      1450   0.011634056   -1.9753856     -1.9928258      0.017440178   -0.00011324565
      1500   0.013658115   -1.9754454     -1.9959198      0.020474368    0.00030114674
      1550   0.015376907   -1.9755669     -1.9986178      0.023050944    9.2977198e-05
      1600   0.01666132    -1.9756056     -2.0005819      0.02497636    -5.3787494e-05
      1650   0.01744609    -1.9754271     -2.0015799      0.026152779   -0.00027929712
      1700   0.020552784   -1.9754946     -2.0063045      0.030809908    0.00027182122
      1750   0.021270943   -1.9755599     -2.0074464      0.031886473   -0.00018534129
      1800   0.026559554   -1.9758045     -2.0156189      0.039814431   -0.00057177846
      1850   0.027617882   -1.975838      -2.0172389      0.041400932    0.00067399868
      1900   0.03040316    -1.9761488     -2.021725       0.045576237    0.00044303087
      1950   0.032555282   -1.9762086     -2.025011       0.048802403   -0.00013094319
      2000   0.033035735   -1.9762661     -2.0257887      0.049522631    0.00021830578
      2050   0.035304833   -1.9761063     -2.0290304      0.052924152   -0.00052767798
      2100   0.038495904   -1.9762208     -2.0339286      0.057707766    0.00064678207
      2150   0.036913067   -1.9762611     -2.0315961      0.055334994   -0.00018115182
      2200   0.040038812   -1.9763303     -2.036351       0.060020681   -0.00088500294
      2250   0.043080802   -1.976433      -2.0410138      0.064580814    0.0005625622 
      2300   0.043094135   -1.9764873     -2.0410881      0.064600802   -0.00042799568
      2350   0.046314419   -1.9765012     -2.0459294      0.069428209   -0.00095078146
      2400   0.050698872   -1.9765786     -2.0525793      0.076000778    0.00065558438
      2450   0.054839405   -1.9764711     -2.0586788      0.082207696    0.00052960253
      2500   0.055362819   -1.9764029     -2.0593953      0.082992326   -0.00038110096
      2550   0.05720191    -1.9765033     -2.0622525      0.085749238   -0.00035102003
      2600   0.060814028   -1.9764032     -2.0675673      0.091164028    0.00047741617
      2650   0.060455864   -1.9763219     -2.066949       0.090627118   -0.00046181648
      2700   0.06435521    -1.9764084     -2.0728809      0.096472481    1.657692e-05 
      2750   0.062871103   -1.9765505     -2.0707982      0.094247713   -0.00019894766
      2800   0.068070432   -1.976655      -2.0786968      0.10204183    -0.00072895544
      2850   0.070166658   -1.9767169     -2.0819011      0.10518421    -8.8667976e-05
      2900   0.074216186   -1.9769619     -2.0882166      0.1112547     -0.00070814835
      2950   0.074803172   -1.9770725     -2.0892071      0.11213463     0.0017351327 
      3000   0.074287744   -1.9771264     -2.0884884      0.11136197    -0.00090940598
      3050   0.077224791   -1.9773966     -2.0931614      0.11576479     2.2984816e-05
      3100   0.081856523   -1.9771549     -2.0998629      0.12270804     0.00083925067
      3150   0.087753389   -1.9770958     -2.1086436      0.13154781    -0.00059995583
      3200   0.085445134   -1.9771577     -2.1052453      0.1280876     -0.00040755291
      3250   0.087944935   -1.9773702     -2.1092051      0.13183495    -0.00018014119
      3300   0.090040818   -1.977544      -2.1125208      0.13497681    -1.1538637e-05
      3350   0.091757408   -1.9773921     -2.1149422      0.13755009    -0.0016002787 
      3400   0.10080094    -1.9771564     -2.1282633      0.1511069     -8.2366638e-05
      3450   0.10000046    -1.9769595     -2.1268664      0.14990693     0.00030163311
      3500   0.09973715    -1.9773895     -2.1269018      0.14951222     0.00084621911
      3550   0.11252523    -1.9779092     -2.1465915      0.16868235     7.1794317e-05
      3600   0.11426371    -1.977605      -2.1488935      0.17128844     0.00073700391
      3650   0.11746599    -1.9771878     -2.1532766      0.17608885    -0.0014565081 
      3700   0.11684306    -1.9772502     -2.1524052      0.17515505     0.00029312915
      3750   0.11613889    -1.9775149     -2.1516143      0.17409945     0.00070418546
      3800   0.11952333    -1.9778342     -2.1570071      0.17917294     0.00061966904
      3850   0.12327476    -1.9778254     -2.162622       0.18479658     0.00083814716
      3900   0.12378379    -1.9780491     -2.1636087      0.18555963    -0.00060768609
      3950   0.12346754    -1.9784999     -2.1635854      0.18508557     0.00027353979
      4000   0.13085996    -1.9783524     -2.1745196      0.19616726     0.0011332289 
      4050   0.1307024     -1.9785775     -2.1745085      0.19593107    -0.0007625002 
      4100   0.13347833    -1.9782516     -2.1783439      0.20009235     0.00045140813
      4150   0.12974145    -1.9785376     -2.1730281      0.19449054    -7.2392951e-05
      4200   0.13784102    -1.9786664     -2.1852987      0.2066323      0.00027232048
      4250   0.13906129    -1.9786649     -2.1871265      0.20846156     0.00083030251
      4300   0.14444321    -1.9791231     -2.1956525      0.2165294     -0.00026891777
      4350   0.13751459    -1.9795247     -2.1856676      0.20614296    -0.00068260971
      4400   0.14369517    -1.9795328     -2.1949408      0.21540804     0.001670482  
      4450   0.15210673    -1.9791999     -2.2072174      0.2280175     -0.0004586917 
      4500   0.15362466    -1.9791491     -2.2094421      0.23029297     0.0017285645 
      4550   0.15371945    -1.979149      -2.2095841      0.23043506    -0.0029160776 
      4600   0.1477724     -1.9792571     -2.2007771      0.22152007     0.00041610606
      4650   0.1528093     -1.9795445     -2.2086152      0.22907069     0.00082396843
      4700   0.15695732    -1.9795789     -2.2148677      0.23528884    -0.001128248  
      4750   0.16173368    -1.9797743     -2.2222232      0.2424489     -0.00021057791
      4800   0.16316732    -1.9799785     -2.2245765      0.24459802     0.00095247305
      4850   0.16578837    -1.9794646     -2.2279917      0.24852713     0.001304109  
      4900   0.16890739    -1.9797444     -2.2329471      0.25320273     0.001521757  
      4950   0.16887015    -1.9798102     -2.2329571      0.25314691     9.0366429e-05
      5000   0.16788713    -1.9795752     -2.2312485      0.2516733      0.00089689209
      5050   0.16582338    -1.979188      -2.2277676      0.24857961     0.00048230699
      5100   0.16571401    -1.9789485     -2.2273642      0.24841566    -0.0004733782 
      5150   0.17397668    -1.978581      -2.2393829      0.26080192    -0.00057846232
      5200   0.18058978    -1.9788633     -2.2495787      0.27071536    -8.7345866e-05
      5250   0.18130486    -1.9789909     -2.2507782      0.27178732    -0.00010009897
      5300   0.17856763    -1.9787972     -2.2464812      0.26768404     0.0012058091 
      5350   0.18174221    -1.9783818     -2.2508248      0.27244293     0.00071539427
      5400   0.18429013    -1.9787126     -2.254975       0.27626242     0.00052420901
      5450   0.18127565    -1.9791541     -2.2508976      0.27174352    -0.0009513206 
      5500   0.18399077    -1.9790822     -2.2548959      0.27581367    -0.0013522882 
      5550   0.19147429    -1.97934       -2.2663719      0.28703192    -0.0010599019 
      5600   0.19998199    -1.9793539     -2.2791394      0.2997855      0.00029864761
      5650   0.19690913    -1.9792449     -2.274424       0.2951791      0.00079969245
      5700   0.1944198     -1.9792815     -2.270729       0.29144743     0.003200674  
      5750   0.19812476    -1.9796933     -2.2766947      0.29700139     0.0011885458 
      5800   0.20677302    -1.9795117     -2.2894774      0.30996568    -0.0002118175 
      5850   0.1974679     -1.9789324     -2.2749491      0.29601673    -0.0024830354 
      5900   0.19762789    -1.9788224     -2.2750789      0.29625656     0.0003666837 
      5950   0.20262595    -1.9791074     -2.2828564      0.30374896     0.00069077313
      6000   0.20689816    -1.9794502     -2.2896035      0.31015327     0.0017364279 
      6050   0.19870104    -1.9794558     -2.2773211      0.29786527    -0.001691047  
      6100   0.19825852    -1.9794833     -2.2766852      0.29720192    -0.00085027629
      6150   0.21514544    -1.9795527     -2.3020692      0.32251646     0.0026355446 
      6200   0.2085296     -1.9795473     -2.2921462      0.3125989     -0.000897201  
      6250   0.20974232    -1.9795599     -2.2939767      0.31441685     0.00010858359
      6300   0.20780542    -1.9796255     -2.2911389      0.31151332    -0.003359872  
      6350   0.22005119    -1.9800393     -2.3099098      0.32987048    -0.00030496909
      6400   0.22245975    -1.9802349     -2.3137159      0.33348107     0.0018095382 
      6450   0.21344739    -1.9802799     -2.3002509      0.31997098    -0.0038378454 
      6500   0.22752718    -1.9802619     -2.3213394      0.34107746     0.0004587651 
      6550   0.22494998    -1.9809937     -2.3182078      0.33721407    -0.00025783978
      6600   0.21842413    -1.9812402     -2.3086716      0.32743142     0.00037218985
      6650   0.21922715    -1.9809929     -2.3096281      0.3286352      0.00076654456
      6700   0.22961682    -1.9811225     -2.3253325      0.34420997     0.00086467008
      6750   0.22726434    -1.9808852     -2.3215687      0.34068344     0.00020862023
      6800   0.21886568    -1.9806967     -2.30879        0.32809334     0.0004047875 
      6850   0.23478119    -1.9805412     -2.3324929      0.35195167     0.00023554922
      6900   0.2279326     -1.9801293     -2.3218145      0.34168521    -0.00078992134
      6950   0.23097488    -1.9799137     -2.3261595      0.34624578    -0.001995224  
      7000   0.22833311    -1.9791942     -2.3214798      0.3422856      0.00016067029
      7050   0.22441071    -1.9792906     -2.3156963      0.33640567    -5.0224271e-05
      7100   0.23260554    -1.979733      -2.3284232      0.34869024    -0.0010218188 
      7150   0.22869736    -1.979921      -2.3227526      0.34283163    -0.0011059347 
      7200   0.22594326    -1.9800969     -2.3187999      0.33870307    -8.6512058e-05
      7250   0.2216176     -1.9804233     -2.3126419      0.33221863    -0.0013387027 
      7300   0.22177248    -1.9802421     -2.3126929      0.3324508      0.0014467564 
      7350   0.23354816    -1.9800751     -2.3301784      0.35010329     0.00031330873
      7400   0.23099371    -1.9798136     -2.3260876      0.34627401    -0.0016012454 
      7450   0.22934899    -1.980327      -2.3241355      0.34380846    -0.0013342912 
      7500   0.23097106    -1.9801805     -2.3264206      0.34624005    -0.00097675864
      7550   0.23300243    -1.9805877     -2.3298729      0.34928521     0.0020438092 
      7600   0.23027349    -1.9804235     -2.3256179      0.34519435     0.0010049084 
      7650   0.23479555    -1.9806851     -2.3326583      0.3519732      0.00081869387
      7700   0.22870788    -1.9805036     -2.3233511      0.34284741     0.0027540386 
      7750   0.23387628    -1.9808163     -2.3314115      0.35059517    -0.0038186548 
      7800   0.23904443    -1.9807923     -2.3391349      0.35834255     0.0020672339 
      7850   0.23664638    -1.9809614     -2.3357091      0.35474771    -0.0001365136 
      7900   0.23504784    -1.9808558     -2.3332072      0.3523514     -0.0011428565 
      7950   0.24269742    -1.9815602     -2.3453788      0.36381859     0.0012888305 
      8000   0.24923161    -1.9818164     -2.3554301      0.37361376     0.0003641985 
      8050   0.24939063    -1.9818611     -2.3557132      0.37385214    -0.00019696203
      8100   0.24270275    -1.9809205     -2.3447471      0.36382659     0.0014561833 
      8150   0.2467012     -1.9808807     -2.3507012      0.36982051    -0.0024889881 
      8200   0.24850892    -1.9807373     -2.3532677      0.3725304     -0.0014696429 
      8250   0.26013116    -1.9806437     -2.3705966      0.38995286     0.001635317  
      8300   0.26155075    -1.9806897     -2.3727706      0.39208092    -0.0012247523 
      8350   0.25767117    -1.9808249     -2.36709        0.38626518     0.0016511514 
      8400   0.2547828     -1.9805562     -2.3624916      0.38193533    -0.0010012761 
      8450   0.25577331    -1.9807353     -2.3641554      0.38342017    -0.0012453845 
      8500   0.25938772    -1.9810834     -2.3699218      0.3888384     -0.0014224409 
      8550   0.2608015     -1.9811604     -2.3721182      0.39095775     0.00055959317
      8600   0.26554444    -1.9816237     -2.3796914      0.39806771    -5.8239986e-05
      8650   0.26259222    -1.9810944     -2.3747366      0.39364215     0.0011479606 
      8700   0.27299309    -1.9812846     -2.3905183      0.4092337      0.00042605387
      8750   0.2655863     -1.9811518     -2.3792823      0.39813046    -0.00093581681
      8800   0.26655582    -1.9814215     -2.3810053      0.39958384     0.003055419  
      8850   0.26551391    -1.9813799     -2.3794019      0.39802195    -0.0010901871 
      8900   0.26797505    -1.9813603     -2.3830717      0.40171134    -0.0020786466 
      8950   0.26864374    -1.9814851     -2.3841989      0.40271376     0.00037271112
      9000   0.26254679    -1.9816984     -2.3752725      0.39357405    -0.00044908761
      9050   0.27285002    -1.9817411     -2.3907603      0.40901923     0.0020684898 
      9100   0.26786618    -1.9816613     -2.3832095      0.40154815    -0.0025187917 
      9150   0.27036623    -1.981488      -2.3867839      0.40529588    -9.9408611e-05
      9200   0.27060083    -1.9814217     -2.3870692      0.40564755     0.00012671576
      9250   0.26417572    -1.9817929     -2.3778088      0.39601591     0.0003002107 
      9300   0.26862731    -1.9819167     -2.3846058      0.40268913    -0.0017293228 
      9350   0.28201563    -1.9821663     -2.4049254      0.42275905     0.00058805186
      9400   0.28766077    -1.9820642     -2.4132857      0.43122147     0.0020947129 
      9450   0.27451492    -1.982159      -2.3936741      0.41151502     0.0016938499 
      9500   0.28170265    -1.9822346     -2.4045245      0.42228988    -0.0039694211 
      9550   0.2771774     -1.9822562     -2.3977625      0.41550624     0.0011586556 
      9600   0.27852253    -1.9822399     -2.3997626      0.41752267    -0.0012038628 
      9650   0.27591972    -1.9830221     -2.396643       0.4136209      9.792176e-05 
      9700   0.2815571     -1.982894      -2.4049657      0.42207168     0.0028250746 
      9750   0.28828917    -1.9829551     -2.4151186      0.43216348    -0.0026829931 
      9800   0.29123052    -1.9832478     -2.4198206      0.43657274     0.0030086774 
      9850   0.29601571    -1.9829183     -2.4266643      0.44374605    -0.0001788838 
      9900   0.28282689    -1.9829304     -2.4069056      0.42397518     0.00098449769
      9950   0.29016806    -1.9828681     -2.4178482      0.43498006    -0.0029081778 
     10000   0.30040931    -1.982801      -2.4331333      0.45033233     0.0021555635 
     10050   0.29795785    -1.9831266     -2.429784       0.44665744     0.0015005141 
     10100   0.29623664    -1.983131      -2.4272082      0.44407724    -0.0017382215 
     10150   0.29465187    -1.983209      -2.4249106      0.44170156    -0.00034939105
     10200   0.30067787    -1.9832333     -2.4339682      0.45073492    -0.00037336396
     10250   0.29951003    -1.9830298     -2.432014       0.44898426    -0.0011382121 
     10300   0.29545783    -1.983023      -2.4259328      0.44290976     0.00099846936
     10350   0.3018547     -1.9827348     -2.4352339      0.45249906    -0.0002806022 
     10400   0.29268559    -1.9829204     -2.4216743      0.43875399    -0.00039547437
     10450   0.28753752    -1.9830967     -2.4141334      0.43103671    -0.0002802408 
     10500   0.30092335    -1.9835092     -2.4346121      0.45110291     0.0014349777 
     10550   0.3093402     -1.9835134     -2.4472337      0.4637203      0.0016304313 
     10600   0.3070079     -1.9830886     -2.4433127      0.46022402    -0.0018388063 
     10650   0.3021856     -1.9833732     -2.4363683      0.4529951      0.0006908943 
     10700   0.29808151    -1.9829195     -2.4297623      0.44684282    -0.00016334703
     10750   0.30503751    -1.9828811     -2.4401514      0.45727029     0.001141389  
     10800   0.30815365    -1.9832579     -2.4451995      0.46194158     0.00053444734
     10850   0.31070607    -1.9831915     -2.4489594      0.46576782     0.0014877194 
     10900   0.30203645    -1.9836787     -2.4364502      0.45277151    -0.00097773723
     10950   0.30414252    -1.9836889     -2.4396176      0.45592865    -0.0020803741 
     11000   0.30817615    -1.9835636     -2.4455389      0.46197531     0.00036673277
     11050   0.30426994    -1.9831947     -2.4393143      0.45611966    -0.00029007457
     11100   0.30414885    -1.9833069     -2.4392451      0.45593814    -0.00083472324
     11150   0.3100515     -1.9841711     -2.4489576      0.46478658     0.00066549946
     11200   0.31953689    -1.9848442     -2.46385        0.47900577     0.0013306994 
     11250   0.31287193    -1.984803      -2.4538176      0.46901458    -0.0018038596 
     11300   0.30456578    -1.984285      -2.4408482      0.45656314    -0.00020679749
     11350   0.31645659    -1.9848676     -2.4592558      0.47438821     0.00084482487
     11400   0.31064578    -1.9848988     -2.4505762      0.46567743     0.0010927968 
     11450   0.30713839    -1.9847007     -2.4451204      0.46041964    -0.0012807402 
     11500   0.31535286    -1.9850134     -2.457747       0.47273365     8.6446349e-05
     11550   0.31948028    -1.9853544     -2.4642753      0.4789209     -0.0010133351 
     11600   0.31729431    -1.9856949     -2.4613389      0.475644       0.0011986506 
     11650   0.32577683    -1.9860159     -2.4743757      0.48835982    -0.0015485861 
     11700   0.32087595    -1.9860472     -2.4670603      0.4810131      0.0015632801 
     11750   0.31801776    -1.9859308     -2.4626593      0.4767285     -0.00052313899
     11800   0.32263017    -1.9862864     -2.4699291      0.48364279    -0.00067943077
     11850   0.32815099    -1.986452      -2.4783708      0.49191884     0.00085622852
     11900   0.31808102    -1.98659       -2.4634133      0.47682332     0.00089576339
     11950   0.32029888    -1.9867701     -2.4669182      0.48014804    -7.0405018e-05
     12000   0.32633607    -1.9872093     -2.4764074      0.48919816     0.00030977971
     12050   0.32755674    -1.9870688     -2.4780968      0.49102802     0.00010047253
     12100   0.32202875    -1.9870229     -2.4697641      0.48274123    -2.6640468e-05
     12150   0.33300201    -1.9874961     -2.4866869      0.49919083    -0.00094346351
     12200   0.33639631    -1.9878685     -2.4921476      0.50427909     0.00038954235
     12250   0.33503515    -1.9878942     -2.4901329      0.50223863     0.0039536663 
     12300   0.33166369    -1.9873801     -2.4845647      0.4971846     -0.00039062626
     12350   0.32328761    -1.9862965     -2.4709248      0.48462833    -0.00096336743
     12400   0.31426733    -1.9862731     -2.4573794      0.47110636    -3.7213751e-05
     12450   0.32461277    -1.9858178     -2.4724327      0.48661483    -0.00056483651
     12500   0.32987389    -1.98594       -2.4804416      0.49450157    -0.0020148663 
     12550   0.32475626    -1.9862096     -2.4730395      0.48682992    -0.0013436172 
     12600   0.32994604    -1.9862374     -2.4808471      0.49460974     0.0012824217 
     12650   0.32444226    -1.9858468     -2.472206       0.48635923     0.00055900101
     12700   0.34706305    -1.9862055     -2.5064747      0.5202692      0.001052611  
     12750   0.33792288    -1.9867505     -2.493318       0.50656752     0.0022608569 
     12800   0.3293334     -1.9865064     -2.4801978      0.49369135    -0.0013291313 
     12850   0.33357863    -1.9868172     -2.4868724      0.50005521     0.00065913723
     12900   0.33436986    -1.9861726     -2.4874139      0.50124132     0.0016257991 
     12950   0.34035791    -1.985884      -2.4961018      0.51021777    -0.0020627238 
     13000   0.34150338    -1.9857909     -2.4977258      0.51193491    -4.5085199e-05
     13050   0.33209824    -1.9861087     -2.4839447      0.49783601    -0.00019130956
     13100   0.32597012    -1.9861659     -2.4748155      0.48864959    -0.00083559677
     13150   0.33226665    -1.9864441     -2.4845326      0.49808848     0.00018037129
     13200   0.32357589    -1.9861299     -2.4711904      0.48506048    -0.00069102609
     13250   0.32623002    -1.9856359     -2.4746751      0.48903919    -0.0017477056 
     13300   0.34514764    -1.985828      -2.5032259      0.51739788     0.0024186762 
     13350   0.3430596     -1.9861396     -2.5004074      0.51426778    -0.0012311035 
     13400   0.33365924    -1.9865266     -2.4867027      0.50017605     0.00044526292
     13450   0.33713569    -1.9865264     -2.4919139      0.50538747     0.0014556116 
     13500   0.32721389    -1.9863535     -2.4768675      0.49051406    -0.00257198   
     13550   0.33744327    -1.9865925     -2.4924411      0.50584856     0.0012874938 
     13600   0.34092731    -1.9866075     -2.4976789      0.51107134    -0.002091658  
     13650   0.34647433    -1.9865251     -2.5059118      0.51938668     4.8107852e-05
     13700   0.33686478    -1.9866943     -2.4916757      0.50498136    -0.0008799021 
     13750   0.33941362    -1.9861469     -2.4949492      0.50880223    -0.0018480994 
     13800   0.33263352    -1.9859854     -2.4846238      0.49863843    -0.0031522255 
     13850   0.33183655    -1.9863405     -2.4837842      0.49744373     0.00053795132
     13900   0.33480654    -1.9864833     -2.4883792      0.50189592     0.00024383138
     13950   0.33024505    -1.9869082     -2.4819662      0.49505797    -0.00097958454
     14000   0.34152754    -1.9868083     -2.4987794      0.51197113    -0.0008941596 
     14050   0.34203276    -1.9866469     -2.4993754      0.51272848     0.0031533068 
     14100   0.34114653    -1.9864273     -2.4978272      0.51139997    -0.0014220378 
     14150   0.33792057    -1.9867455     -2.4933096      0.50656405     0.0019539476 
     14200   0.340276      -1.9865366     -2.4966316      0.51009499     0.00045342559
     14250   0.33959995    -1.9864715     -2.4955531      0.50908155     0.00028138291
     14300   0.35059165    -1.9868682     -2.512427       0.5255588      0.0021943908 
     14350   0.35339569    -1.9870477     -2.5168099      0.52976223    -0.00071441267
     14400   0.34370349    -1.9874241     -2.5026571      0.51523302     0.0025349275 
     14450   0.34133441    -1.9877339     -2.4994155      0.51168161    -0.0037990497 
     14500   0.34686011    -1.9880414     -2.5080064      0.51996498     0.0039350038 
     14550   0.34897528    -1.9875791     -2.5107149      0.52313576    -0.00062978183
     14600   0.34959315    -1.9874781     -2.5115401      0.52406197    -0.0014966356 
     14650   0.35422298    -1.9872798     -2.5182821      0.53100239     0.0015943118 
     14700   0.3494829     -1.9871564     -2.5110531      0.52389671    -0.00071034928
     14750   0.35409486    -1.9868205     -2.5176308      0.53081033    -0.0011549755 
     14800   0.34926513    -1.9876808     -2.5112511      0.52357026     0.003868573  
     14850   0.34438415    -1.9880956     -2.5043489      0.51625336    -0.002958354  
     14900   0.35921336    -1.9881485     -2.5266318      0.53848327     0.0043747916 
     14950   0.36199805    -1.9882214     -2.5308791      0.54265771    -0.00011084772
     15000   0.36170128    -1.9884221     -2.5306349      0.54221282     0.00027649795
     15050   0.36785501    -1.9886798     -2.5401175      0.55143765     0.0020784163 
     15100   0.36944892    -1.9891052     -2.5429322      0.55382702     0.00093599029
     15150   0.37857008    -1.989535      -2.5570352      0.56750022     0.00059976516
     15200   0.37108365    -1.989397      -2.5456746      0.55627759    -0.00061910343
     15250   0.3760533     -1.9893625     -2.5530899      0.5637274      0.00044946047
     15300   0.37405544    -1.9889101     -2.5496426      0.56073249    -0.00069574489
     15350   0.36913303    -1.9882823     -2.5416358      0.55335348     0.0012569394 
     15400   0.36764277    -1.9880693     -2.5391888      0.55111949    -0.00048512247
     15450   0.36368412    -1.9886129     -2.5337981      0.54518523     0.0044973394 
     15500   0.37104888    -1.9884602     -2.5446857      0.55622546    -0.0025964944 
     15550   0.37483669    -1.9885923     -2.5504959      0.56190363     0.0018952492 
     15600   0.37750512    -1.9886866     -2.5545904      0.56590377     0.00046224249
     15650   0.37666042    -1.9886831     -2.5533206      0.56463751     0.0016361151 
     15700   0.3727025     -1.9888311     -2.5475355      0.55870435    -0.003269686  
     15750   0.37054439    -1.9887358     -2.544205       0.5554692      2.6425777e-05
     15800   0.37941269    -1.989478      -2.5582413      0.56876334    -0.00012999302
     15850   0.38704538    -1.9896336     -2.5698388      0.58020521    -0.0010521932 
     15900   0.37030948    -1.9892686     -2.5443856      0.55511705     0.0021394112 
     15950   0.36793099    -1.9891393     -2.5406908      0.55155155    -0.00055008319
     16000   0.37459262    -1.9888768     -2.5504146      0.56153774    -0.0012948424 
     16050   0.38478505    -1.988809      -2.5656258      0.57681684    -0.00033758649
     16100   0.37692548    -1.9884756     -2.5535104      0.56503486     0.0025417985 
     16150   0.36764875    -1.9883073     -2.5394358      0.55112846    -0.0030462253 
     16200   0.3751358     -1.988102      -2.550454       0.56235201    -9.530482e-07 
     16250   0.38717466    -1.988485      -2.568884       0.58039902     0.0027553505 
     16300   0.38985061    -1.989101      -2.5735115      0.58441044     0.0027624215 
     16350   0.38230291    -1.9889298     -2.5620257      0.57309596     0.00010818056
     16400   0.37855446    -1.9890244     -2.5565012      0.5674768     -0.0032765857 
     16450   0.38276922    -1.9898299     -2.5636248      0.57379498    -0.001342456  
     16500   0.38632668    -1.9897033     -2.5688312      0.57912784     0.0007828379 
     16550   0.38903435    -1.9899989     -2.5731857      0.58318681     0.0029291596 
     16600   0.38511949    -1.9900304     -2.5673486      0.57731818    -0.00078817524
     16650   0.3785114     -1.9896061     -2.5570184      0.56741224    -0.0023671684 
     16700   0.37821759    -1.9897378     -2.5567096      0.5669718      0.00062672666
     16750   0.38746157    -1.9892446     -2.5700737      0.58082911     0.0024479082 
     16800   0.37870081    -1.9890264     -2.5567225      0.56769618    -0.00076628685
     16850   0.38964921    -1.9896601     -2.5737686      0.58410852    -0.0022213884 
     16900   0.396405      -1.9903534     -2.5845893      0.59423588     2.8503406e-05
     16950   0.39386083    -1.9907354     -2.5811574      0.59042199    -0.00061555794
     17000   0.38650044    -1.990896      -2.5702843      0.57938832     0.00062092213
     17050   0.39502326    -1.991047      -2.5832116      0.59216455     0.00013728293
     17100   0.39499625    -1.9908255     -2.5829496      0.59212407     0.0018291901 
     17150   0.40130069    -1.9906222     -2.592197       0.60157481    -0.0016141569 
     17200   0.40108967    -1.990848      -2.5921065      0.60125848     0.00087062986
     17250   0.39299506    -1.9907423     -2.5798665      0.58912415     0.003046203  
     17300   0.4016985     -1.9910179     -2.593189       0.60217115    -0.0010689714 
     17350   0.39598233    -1.9907165     -2.5843187      0.59360225    -0.0015476605 
     17400   0.38460147    -1.9909741     -2.5675157      0.57654164    -0.0020566356 
     17450   0.38498049    -1.991279      -2.5683888      0.57710981     0.00010065362
     17500   0.40796711    -1.9912174     -2.6027856      0.61156819     0.0032206967 
     17550   0.41420336    -1.9912903     -2.612207       0.62091673     0.00013111086
     17600   0.40504853    -1.9914113     -2.5986044      0.60719306     0.0032847986 
     17650   0.40340631    -1.9914131     -2.5961443      0.60473127    -0.00012230395
     17700   0.42265008    -1.9912677     -2.6248466      0.63357889     0.00086049233
     17750   0.41371018    -1.991224      -2.6114014      0.62017741     0.0007881917 
     17800   0.40944215    -1.9908931     -2.6046724      0.61377937    -0.00015903194
     17850   0.40448469    -1.9906577     -2.5970056      0.60634784     0.0019096265 
     17900   0.4040275     -1.9909304     -2.5965929      0.60566248     0.00044842433
     17950   0.40967983    -1.9914054     -2.6055411      0.61413568     0.0018340012 
     18000   0.41421748    -1.9910222     -2.6119601      0.62093789     0.0022341318 
     18050   0.42402959    -1.9909637     -2.6266105      0.63564686    -0.0020400527 
     18100   0.4136433     -1.9912488     -2.611326       0.62007716    -0.001825197  
     18150   0.41440089    -1.9917036     -2.6129165      0.62121284     0.0056127498 
     18200   0.42566753    -1.9917978     -2.6299001      0.63810224     0.0002070883 
     18250   0.42005482    -1.9914435     -2.621132       0.62968843     0.00026381708
     18300   0.42024407    -1.9917785     -2.6217507      0.62997212    -0.00069725284
     18350   0.42466565    -1.991776      -2.6283763      0.63660036     0.00056125932
     18400   0.42424392    -1.9918715     -2.6278396      0.63596815     0.00019898092
     18450   0.41701006    -1.992316      -2.6174401      0.62512414    -0.00044262269
     18500   0.41983369    -1.9923596     -2.6217165      0.62935694     0.0048509593 
     18550   0.41438061    -1.9924413     -2.6136238      0.62118244     0.0014922546 
     18600   0.43252058    -1.9921108     -2.6404862      0.64837538    -0.001928433  
     18650   0.42965466    -1.9923221     -2.6364013      0.64407919    -0.0014874401 
     18700   0.41635213    -1.9926341     -2.616772       0.62413786     0.00098330605
     18750   0.41634596    -1.9931083     -2.6172369      0.62412862     0.0029133128 
     18800   0.42152245    -1.9928682     -2.6247567      0.6318885      0.0015863629 
     18850   0.42560241    -1.9928905     -2.6308951      0.63800462    -0.00078428256
     18900   0.43377704    -1.9935894     -2.6438483      0.6502589      0.0020881524 
     18950   0.43441481    -1.993922      -2.645137       0.65121495     0.0023452957 
     19000   0.41857112    -1.9935881     -2.6210523      0.62746426    -0.00065397153
     19050   0.41095569    -1.9939949     -2.6100432      0.61604827    -0.0025601469 
     19100   0.42293021    -1.9939739     -2.6279727      0.63399882     0.0025854192 
     19150   0.43277254    -1.9929778     -2.6417309      0.64875309     0.0029544186 
     19200   0.41488052    -1.9925925     -2.6145243      0.62193182    -0.0014527313 
     19250   0.41840199    -1.9929122     -2.6201229      0.62721073    -0.0013367284 
     19300   0.41639189    -1.9932638     -2.6174612      0.62419747     0.0054464065 
     19350   0.41942136    -1.9934381     -2.6221769      0.62873883    -0.0012489197 
     19400   0.42678527    -1.9936975     -2.6334753      0.63977779    -0.00044395384
     19450   0.42441289    -1.9938484     -2.6300698      0.63622144     0.0022815292 
     19500   0.42566883    -1.9935575     -2.6316616      0.63810418    -0.0013444142 
     19550   0.42687274    -1.9935244     -2.6334333      0.63990892     0.0015078263 
     19600   0.4303487     -1.9930101     -2.6381297      0.6451196     -0.0018211485 
     19650   0.44372607    -1.9930575     -2.6582306      0.66517311     0.0032769106 
     19700   0.43800136    -1.9927039     -2.6492953      0.65659142     0.0020836079 
     19750   0.42951239    -1.992338      -2.6362039      0.64386592     0.00099612539
     19800   0.43629749    -1.9922357     -2.6462729      0.65403721    -0.00071416468
     19850   0.42654126    -1.991913      -2.631325       0.63941201    -0.00092708905
     19900   0.43405822    -1.9918261     -2.6425065      0.6506804      0.0017563685 
     19950   0.44620763    -1.9923762     -2.6612693      0.66889313    -0.0013255684 
     20000   0.43235668    -1.9927639     -2.6408936      0.64812969    -0.00074176375
     20050   0.43420267    -1.9931613     -2.6440583      0.65089694     3.4202107e-05
     20100   0.4335097     -1.9937455     -2.6436037      0.64985814     0.003734446  
     20150   0.43634683    -1.9938361     -2.6479473      0.65411117     0.0027083101 
     20200   0.43094874    -1.993743      -2.6397621      0.6460191     -0.0016373307 
     20250   0.4219277     -1.9943396     -2.6268356      0.63249599    -0.0019672127 
     20300   0.42764335    -1.9945927     -2.6356568      0.64106411     0.0012981111 
     20350   0.43036017    -1.9947315     -2.6398683      0.64513679    -0.00058689318
     20400   0.44140461    -1.9950276     -2.6567207      0.66169309     0.002502521  
     20450   0.44392534    -1.9951489     -2.6606207      0.66547182     0.0029993476 
     20500   0.43513636    -1.9952243     -2.6475209      0.6522966     -0.00266632   
     20550   0.44476032    -1.9952913     -2.6620148      0.66672351     0.0034244302 
     20600   0.44980308    -1.9947726     -2.6690556      0.67428294     0.0016484724 
     20650   0.44291939    -1.9945264     -2.6584902      0.66396385    -0.0020374408 
     20700   0.44580625    -1.9949332     -2.6632246      0.66829143     0.0012077514 
     20750   0.44495047    -1.9954958     -2.6625044      0.66700857    -0.00095421311
     20800   0.43088267    -1.9952159     -2.641136       0.64592006    -0.002336429  
     20850   0.43592932    -1.995676      -2.6491613      0.6534853      0.0031970695 
     20900   0.45075881    -1.9954578     -2.6711735      0.67571563     0.0023233537 
     20950   0.44107732    -1.9954232     -2.6566257      0.66120247    -0.00070096294
     21000   0.44831293    -1.9952722     -2.6673213      0.6720491     -0.0020092892 
     21050   0.44642715    -1.9959222     -2.6651445      0.66922221     0.0020347891 
     21100   0.4494981     -1.9960197     -2.6698455      0.67382575    -0.0035246503 
     21150   0.45569014    -1.996485      -2.679593       0.68310801     0.00036365155
     21200   0.45523749    -1.9962773     -2.6787068      0.68242944     0.0038710576 
     21250   0.46429835    -1.9965641     -2.6925764      0.69601225     0.00031291689
     21300   0.45664121    -1.9971129     -2.6816466      0.68453372     0.0047402106 
     21350   0.46221995    -1.9972909     -2.6901875      0.6928966      0.0012731169 
     21400   0.46433787    -1.9970405     -2.693112       0.69607149     0.0012507847 
     21450   0.46174488    -1.9970077     -2.6891921      0.69218444    -0.00056569012
     21500   0.4546242     -1.9965815     -2.6780916      0.68151009     0.0019942203 
     21550   0.45730966    -1.9968404     -2.6823761      0.68553576     0.0033890263 
     21600   0.46684369    -1.9967929     -2.6966208      0.69982787    -0.00056820433
     21650   0.45476099    -1.9964108     -2.6781259      0.68171514     0.00069446722
     21700   0.45252765    -1.9962187     -2.674586       0.67836722     0.0041649294 
     21750   0.45351425    -1.9958815     -2.6757277      0.67984621    -7.5449267e-05
     21800   0.44308985    -1.9959161     -2.6601354      0.66421937    -0.00050886143
     21850   0.44026819    -1.9959312     -2.6559207      0.65998954     0.0035701972 
     21900   0.44817113    -1.9961787     -2.6680152      0.67183653     0.0006808205 
     21950   0.45808959    -1.9961562     -2.6828611      0.68670493    -0.00011597354
     22000   0.47637555    -1.9960576     -2.7101743      0.71411672    -0.00069123776
     22050   0.4567257     -1.9955779     -2.6802382      0.68466037     0.0002852787 
     22100   0.44355549    -1.9961522     -2.6610696      0.66491741     0.0026794204 
     22150   0.45704362    -1.996292      -2.6814289      0.68513695     0.00046826917
     22200   0.4692738     -1.9969695     -2.7004403      0.70347075     0.0017736937 
     22250   0.46390516    -1.997533      -2.6929558      0.69542282     0.0020584647 
     22300   0.4656881     -1.9970175     -2.6951131      0.69809556     7.4031001e-05
     22350   0.46003759    -1.9970164     -2.6866415      0.6896251      0.0011315671 
     22400   0.45303405    -1.9966473     -2.6757737      0.67912636    -0.00076549594
     22450   0.46000171    -1.9968471     -2.6864184      0.68957131    -0.0026415974 
     22500   0.46320443    -1.9977011     -2.6920735      0.69437239     0.002979747  
     22550   0.47424626    -1.9977302     -2.708655       0.71092479     0.00025342628
     22600   0.46990574    -1.9979544     -2.7023725      0.70441807     0.001090363  
     22650   0.46767495    -1.9978762     -2.6989502      0.70107398     0.0017637294 
     22700   0.46125504    -1.9978662     -2.6893163      0.69145014     0.0030710405 
     22750   0.46703312    -1.998072      -2.6981838      0.70011184    -2.7539131e-05
     22800   0.4595578     -1.9977979     -2.6867038      0.68890586    -0.0021810093 
     22850   0.47672542    -1.9977863     -2.7124275      0.7146412      0.00083851449
     22900   0.48595021    -1.9979234     -2.7263931      0.72846974    -0.00033128233
     22950   0.47744106    -1.9976231     -2.7133371      0.71571399     0.0030323832 
     23000   0.48798412    -1.9974141     -2.7289328      0.73151869     0.0012574027 
     23050   0.47455943    -1.9973024     -2.7086966      0.71139424    -0.00024085268
     23100   0.47570338    -1.996887      -2.7099961      0.7131091     -0.00040575583
     23150   0.47166591    -1.9971012     -2.7041579      0.70705668     0.0019913557 
     23200   0.46817416    -1.997007      -2.6988293      0.70182232     0.0018197579 
     23250   0.48517744    -1.9971168     -2.7244281      0.72731131     0.0014933091 
     23300   0.48105206    -1.9976044     -2.7187315      0.72112711    -0.0012818525 
     23350   0.48133621    -1.9973456     -2.7188987      0.72155306    -0.00032934522
     23400   0.48581271    -1.9977695     -2.7260331      0.72826362     0.0044460788 
     23450   0.47885007    -1.9975599     -2.7153861      0.71782618    -0.0016422464 
     23500   0.46971973    -1.9971375     -2.7012768      0.70413923     0.0035021972 
     23550   0.47790863    -1.9969386     -2.7133535      0.71641491     0.00026106226
     23600   0.47371544    -1.9967424     -2.7068714      0.71012906    -0.00039154318
     23650   0.46598322    -1.9966491     -2.6951871      0.69853798     0.00026277082
     23700   0.47213453    -1.9970327     -2.7047918      0.70775916    -0.0014675913 
     23750   0.47824412    -1.9973002     -2.714218       0.71691783     0.0050024656 
     23800   0.48165583    -1.9978429     -2.7198751      0.72203219     0.00085671459
     23850   0.48396475    -1.9978315     -2.7233249      0.72549341     0.00039829966
     23900   0.49299356    -1.9977461     -2.7367742      0.73902816    -0.00020179582
     23950   0.48350503    -1.9975823     -2.7223865      0.72480425    -0.0026400742 
     24000   0.47732147    -1.9974914     -2.7130261      0.71553472     0.0008982339 
     24050   0.47599113    -1.997574      -2.7111145      0.71354045    -0.00014911996
     24100   0.47897431    -1.9983043     -2.7163167      0.71801243    -0.00030833258
     24150   0.48929929    -1.9982134     -2.7317036      0.73349022     0.0026531113 
     24200   0.47104028    -1.9973625     -2.7034813      0.70611883     0.004664416  
     24250   0.46789689    -1.9974218     -2.6988285      0.70140669    -0.0036230641 
     24300   0.47322242    -1.9976726     -2.7070626      0.70938998    -0.00041398787
     24350   0.47933254    -1.9979795     -2.716529       0.71854943     0.0044200857 
     24400   0.47085794    -1.9979008     -2.7037463      0.70584549     0.0003931275 
     24450   0.49986731    -1.9976899     -2.7470223      0.74933234    -0.0012739277 
     24500   0.49214509    -1.9979144     -2.7356706      0.73775625     0.0034615464 
     24550   0.48021433    -1.9979123     -2.7177836      0.71987129    -0.00099034816
     24600   0.47660022    -1.9983003     -2.7127539      0.71445351     0.00097353239
     24650   0.49501251    -1.9984343     -2.740489       0.74205469     0.0012408765 
     24700   0.48191364    -1.9988042     -2.7212229      0.72241866     0.0032811118 
     24750   0.48682681    -1.9984589     -2.7282427      0.72978382     0.0019468163 
     24800   0.49075979    -1.9986391     -2.7343187      0.7356796      0.0017169826 
     24850   0.49198443    -1.9983326     -2.735848       0.7375154     -0.0020028356 
     24900   0.49080812    -1.9983473     -2.7340994      0.73575204     0.0030970619 
     24950   0.49087228    -1.998607      -2.7344552      0.73584823    -0.0017514635 
     25000   0.49122536    -1.9985703     -2.7349478      0.73637751     0.0022979861 
     25050   0.48883854    -1.9985016     -2.7313011      0.73279953     0.0024210817 
     25100   0.49705707    -1.9979464     -2.743066       0.74511962     0.0032815745 
     25150   0.47881334    -1.9974464     -2.7152175      0.71777112     0.0016838857 
     25200   0.47477835    -1.9972336     -2.708956       0.71172242    -0.0050665247 
     25250   0.47108427    -1.9978064     -2.7039912      0.70618476    -0.0027937435 
     25300   0.5122347     -1.998245      -2.7661168      0.76787183     0.0049630323 
     25350   0.50947853    -1.9990899     -2.76283        0.76374016     0.0033680939 
     25400   0.51519268    -1.9987822     -2.7710882      0.77230602    -0.0010318075 
     25450   0.50406981    -1.9994517     -2.7550839      0.75563215     0.0013907229 
     25500   0.50442476    -1.9993183     -2.7554825      0.75616424     0.0041241477 
     25550   0.51913244    -1.9998167     -2.7780286      0.77821198     0.002077416  
     25600   0.51009086    -1.999801      -2.7644591      0.76465808    -0.00051235244
     25650   0.5091055     -1.9988834     -2.7620643      0.76318096    -5.6634686e-05
     25700   0.50465965    -1.9988987     -2.7554151      0.75651635    -9.8445127e-05
     25750   0.49970286    -1.9993477     -2.7484335      0.74908582     0.00041887847
     25800   0.51123916    -1.9996649     -2.7660444      0.76637945    -0.00039332991
     25850   0.51409498    -1.999733      -2.7703936      0.77066051     0.0021693124 
     25900   0.50133706    -1.9999057     -2.7514413      0.75153558     0.0017423883 
     25950   0.49605554    -2.0001976     -2.7438159      0.74361825    -0.0007891356 
     26000   0.51064966    -2.0004826     -2.7659783      0.76549575     0.0046477241 
     26050   0.51417739    -2.0006565     -2.7714405      0.77078404     0.0019706055 
     26100   0.50101644    -2.0004369     -2.7514919      0.75105496     0.0019823375 
     26150   0.50067451    -2.0005858     -2.7511282      0.75054238     0.0017070773 
     26200   0.5044973     -2.0003099     -2.7565829      0.75627298    -0.00088332433
     26250   0.49960158    -1.9993777     -2.7483117      0.74893399     0.0012124517 
     26300   0.49725304    -1.9997768     -2.7451902      0.74541339    -0.0015214649 
     26350   0.5152305     -1.9999212     -2.7722839      0.77236272     0.0010253691 
     26400   0.51450842    -2.0000821     -2.7713624      0.77128029    -0.0022116696 
     26450   0.5017758     -1.9998201     -2.7520134      0.75219328     0.0019085359 
     26500   0.50085152    -1.9998842     -2.7506919      0.75080774     0.0017247874 
     26550   0.50004061    -2.0003031     -2.7498952      0.74959212     0.0043817263 
     26600   0.50683325    -2.0003183     -2.760093       0.75977473     0.002765195  
     26650   0.49450696    -2.0006463     -2.7419432      0.74129684    -0.00032335886
     26700   0.50792911    -2.0009508     -2.7623683      0.76141748     0.0032617359 
     26750   0.52097747    -2.0008529     -2.7818307      0.78097778     0.0034986847 
     26800   0.51569981    -2.0008955     -2.7739617      0.77306624     0.0010798989 
     26850   0.50537927    -2.0003383     -2.7579334      0.75759511     0.00051277633
     26900   0.49188618    -2.0006603     -2.7380285      0.73736813     0.0036541109 
     26950   0.49712       -2.0006653     -2.7458793      0.74521395     0.00030107855
     27000   0.49607893    -2.0003324     -2.7439858      0.74365333    -0.0018331791 
     27050   0.49911335    -2.0005871     -2.7487892      0.74820211     0.0010327456 
     27100   0.50002139    -2.0004817     -2.750045       0.74956332    -0.00078321556
     27150   0.50110158    -2.0001661     -2.7513487      0.75118259     0.0019455852 
     27200   0.51923124    -2.0003005     -2.7786606      0.77836008     0.001308047  
     27250   0.52566063    -2.0006562     -2.7886543      0.78799814     0.0013673175 
     27300   0.51903705    -2.0006625     -2.7787315      0.77806898    -0.00062995803
     27350   0.52630578    -2.0003288     -2.7892941      0.78896526    -0.00071547671
     27400   0.51200666    -2.0004462     -2.7679762      0.76752999     0.00071399036
     27450   0.50742056    -2.0005402     -2.7611953      0.76065513    -0.00032557116
     27500   0.53647762    -2.0010367     -2.8052502      0.80421348     0.00034629238
     27550   0.53319352    -2.0021871     -2.8014775      0.79929041     0.0046030499 
     27600   0.51919038    -2.0027349     -2.7810337      0.77829883     0.0017973006 
     27650   0.52044113    -2.0029154     -2.7830892      0.78017378     0.0030632218 
     27700   0.51287436    -2.0027278     -2.7715585      0.76883072     0.00093525919
     27750   0.52208322    -2.0029327     -2.7855681      0.78263538     0.0035483067 
     27800   0.53395206    -2.0031786     -2.8036061      0.80042752     0.0021610207 
     27850   0.53310241    -2.0029608     -2.8021146      0.79915383     0.0031382076 
     27900   0.51531034    -2.0030581     -2.7755405      0.7724824      0.001188678  
     27950   0.51035452    -2.0032217     -2.7682751      0.76505333    -0.00027153703
     28000   0.51536248    -2.0040869     -2.7766475      0.77256056     0.0015504875 
     28050   0.53526607    -2.0039251     -2.8063224      0.8023973      0.001612202  
     28100   0.52792295    -2.0041874     -2.7955769      0.7913895      0.0033641653 
     28150   0.524544      -2.0041868     -2.790511       0.78632424    -5.0459708e-05
     28200   0.53696799    -2.0039149     -2.8088635      0.80494857     0.00044896731
     28250   0.52615695    -2.0035752     -2.7923174      0.78874215    -0.00020543498
     28300   0.52254525    -2.0033044     -2.7866324      0.78332799     0.0016478858 
     28350   0.51906364    -2.0029886     -2.7810974      0.77810884     0.0046559743 
     28400   0.52197139    -2.0031081     -2.7855759      0.78246774    -0.001703333  
     28450   0.52584952    -2.0024651     -2.7907464      0.7882813     -0.001495565  
     28500   0.53039447    -2.0028375     -2.797932       0.79509447     0.0046189088 
     28550   0.54322127    -2.0031811     -2.8175037      0.81432264     0.0031018339 
     28600   0.5322796     -2.0033907     -2.8013111      0.79792039    -0.0030108756 
     28650   0.53430562    -2.0034821     -2.8044396      0.80095751     0.0012773523 
     28700   0.53603464    -2.0034133     -2.8069627      0.80354942     0.0012026139 
     28750   0.53909152    -2.003234      -2.8113659      0.80813189     0.00075924506
     28800   0.54707231    -2.0038506     -2.8239462      0.82009559    -0.00015510767
     28850   0.53152276    -2.0040517     -2.8008376      0.79678584     0.0023850832 
     28900   0.53797912    -2.0043671     -2.8108315      0.80646432     0.0020273074 
     28950   0.54325121    -2.004168      -2.8185355      0.81436752    -0.0019528459 
     29000   0.54081818    -2.0038222     -2.8145425      0.81072026     0.00051031278
     29050   0.53938782    -2.0046139     -2.81319        0.80857606     0.00080532499
     29100   0.54044749    -2.0041525     -2.814317       0.81016457     0.0034082364 
     29150   0.54599523    -2.0044371     -2.8229181      0.81848097     0.0019780949 
     29200   0.53933483    -2.0037287     -2.8122253      0.80849661     0.00016882832
     29250   0.54018682    -2.0035126     -2.8132864      0.8097738      0.0011512548 
     29300   0.52895008    -2.0032975     -2.7962267      0.79292924    -0.0014618077 
     29350   0.53441687    -2.003868      -2.8049923      0.80112429     0.00031947603
     29400   0.54055924    -2.0046566     -2.8149887      0.81033209    -5.3551953e-05
     29450   0.54156032    -2.0044044     -2.8162371      0.81183277     0.0047839871 
     29500   0.53467676    -2.0039392     -2.8054531      0.80151388     0.001993679  
     29550   0.53180222    -2.0038276     -2.8010324      0.79720476     0.00023122699
     29600   0.53637378    -2.0046879     -2.8087457      0.80405782     0.0029139745 
     29650   0.54461053    -2.0044726     -2.8208779      0.81640522     0.00014844949
     29700   0.54746948    -2.0042168     -2.8249078      0.82069097     0.0018611116 
     29750   0.55200764    -2.0046746     -2.8321686      0.82749395     0.00039655276
     29800   0.55011099    -2.0052027     -2.8298535      0.82465076     0.0040182628 
     29850   0.55197447    -2.0056702     -2.8331145      0.82744423     0.0048982704 
     29900   0.54393842    -2.0060247     -2.8214224      0.81539769    -0.00039323468
     29950   0.53386344    -2.006428      -2.8067227      0.80029467     0.00045620649
     30000   0.54521817    -2.0066968     -2.8240129      0.81731611     0.0022536755 
     30050   0.5531341     -2.0068172     -2.8359998      0.82918259     0.0036267486 
     30100   0.5506676     -2.0066583     -2.8321435      0.82548515    -0.00055279782
     30150   0.55197474    -2.006654      -2.8340987      0.82744463    -0.0020149848 
     30200   0.55853241    -2.0068439     -2.8441189      0.83727499     0.0015991231 
     30250   0.55156965    -2.0072884     -2.8341258      0.82683738     0.00053500198
     30300   0.54343207    -2.0076812     -2.8223198      0.81463864     0.0011333156 
     30350   0.55953962    -2.0076943     -2.8464792      0.83878487     0.0011399216 
     30400   0.54632974    -2.0079068     -2.8268892      0.81898242     0.0055117595 
     30450   0.5536284     -2.008623      -2.8385465      0.82992357     0.00047266839
     30500   0.54783436    -2.0081449     -2.8293829      0.82123794     0.001122134  
     30550   0.54999441    -2.0081628     -2.8326388      0.824476       0.0022859952 
     30600   0.54665089    -2.0085914     -2.8280552      0.81946385     0.0027128    
     30650   0.53256662    -2.0087295     -2.8070801      0.79835065     0.00080857529
     30700   0.53652943    -2.0088245     -2.8131156      0.80429115     0.0024905907 
     30750   0.56207824    -2.0088415     -2.8514319      0.84259042     0.00040981314
     30800   0.56782127    -2.0092177     -2.8604172      0.85119957     0.005264345  
     30850   0.55282752    -2.0091157     -2.8378387      0.828723       0.0012861375 
     30900   0.55475889    -2.0093954     -2.8410137      0.83161825    -0.00033768168
     30950   0.55354265    -2.009067      -2.8388621      0.82979504     0.0006396578 
     31000   0.55309648    -2.009001      -2.8381272      0.8291262     -0.0018330313 
     31050   0.54793663    -2.0088546     -2.8302459      0.82139125     0.0038729859 
     31100   0.55313553    -2.0079183     -2.837103       0.82918473     0.0024743451 
     31150   0.56056804    -2.0079253     -2.8482518      0.84032653    -0.0019365077 
     31200   0.54142807    -2.0080267     -2.8196612      0.81163451     0.00053473915
     31250   0.55248838    -2.0084296     -2.8366443      0.82821462     0.00026276161
     31300   0.55746869    -2.0071619     -2.8428423      0.8356804      0.0042387421 
     31350   0.56638525    -2.0075093     -2.8565562      0.84904689    -0.00024575223
     31400   0.55833184    -2.0076851     -2.8446595      0.83697433     0.0017727638 
     31450   0.55392309    -2.0076397     -2.838005       0.83036533    -0.0020429723 
     31500   0.55676126    -2.0082365     -2.8428565      0.83461993     0.0033163306 
     31550   0.56115845    -2.0078104     -2.849022       0.84121159     0.0038851025 
     31600   0.56287255    -2.0076245     -2.8514056      0.84378114    -0.00085149233
     31650   0.56434261    -2.0075553     -2.8535402      0.84598485    -0.00049672053
     31700   0.57490844    -2.0076672     -2.8694909      0.86182368    -0.00033032836
     31750   0.5645911     -2.0080422     -2.8543996      0.84635734     0.0030172015 
     31800   0.56942162    -2.0087399     -2.8623385      0.8535986      0.0011761945 
     31850   0.55129339    -2.00849       -2.8349133      0.82642324     0.0037293282 
     31900   0.54987473    -2.0081723     -2.8324689      0.82429658     0.00088815277
     31950   0.54932615    -2.0077788     -2.831253       0.82347423    -0.0020829208 
     32000   0.55290525    -2.0077394     -2.836579       0.82883952     2.7488206e-05
     32050   0.57249723    -2.0073181     -2.8655272      0.85820913     0.0021828025 
     32100   0.57406302    -2.0082926     -2.8688489      0.86055635     0.0030798796 
     32150   0.57490645    -2.0087771     -2.8705978      0.8618207      0.0010086429 
     32200   0.57189916    -2.0091591     -2.8664717      0.85731259    -0.00060493054
     32250   0.58923606    -2.0092764     -2.8925781      0.88330169     0.0026996262 
     32300   0.57685155    -2.0094877     -2.8742242      0.86473652     0.0051127234 
     32350   0.5704799     -2.0083116     -2.8634967      0.85518502     0.001581504  
     32400   0.56048155    -2.0077886     -2.8479855      0.84019687     0.002582777  
     32450   0.56278225    -2.0070123     -2.8506581      0.84364576    -0.00092302395
     32500   0.54786915    -2.0069521     -2.8282422      0.82129009     0.0011544946 
     32550   0.56833995    -2.0067491     -2.8587262      0.85197711    -0.00069099409
     32600   0.56292855    -2.0068746     -2.8507397      0.84386508     0.0024745369 
     32650   0.56099149    -2.006523      -2.8474843      0.84096131     0.00049817326
     32700   0.54837884    -2.0063693     -2.8284234      0.82205415     0.0010664473 
     32750   0.56184858    -2.0069696     -2.8492157      0.84224614     0.0016663386 
     32800   0.56547313    -2.0076819     -2.8553614      0.84767956     0.0012724447 
     32850   0.56040247    -2.0078462     -2.8479246      0.84007833     0.0052909525 
     32900   0.56010909    -2.0074582     -2.8470967      0.83963854     0.0038009556 
     32950   0.56831729    -2.0073138     -2.8592569      0.85194314    -0.00015174614
     33000   0.55850065    -2.0069987     -2.844226       0.83722737     0.0013411851 
     33050   0.56910362    -2.0073015     -2.8604234      0.85312189     0.0040622596 
     33100   0.58008066    -2.0073026     -2.8768798      0.86957716     0.00034586936
     33150   0.56868321    -2.007548      -2.8600397      0.85249168     0.0019464777 
     33200   0.56946531    -2.0076738     -2.8613379      0.8536641     -0.0007389512 
     33250   0.56167193    -2.0076593     -2.8496406      0.84198132     0.0031598681 
     33300   0.5767352     -2.0081447     -2.8727068      0.86456211    -0.0020968281 
     33350   0.55995701    -2.0081352     -2.8475457      0.83941056     0.0039878763 
     33400   0.56626791    -2.0091662     -2.8580372      0.84887099    -0.00076634787
     33450   0.58217125    -2.0091242     -2.8818353      0.87271109     0.0022548966 
     33500   0.57071973    -2.0087848     -2.8643293      0.85554454     0.0025161885 
     33550   0.57272601    -2.009381      -2.8679331      0.85855209    -0.00017216916
     33600   0.55995128    -2.0096843     -2.8490862      0.83940196    -0.0010619748 
     33650   0.56155435    -2.0100771     -2.8518822      0.84180506     0.0017740352 
     33700   0.56695371    -2.0103246     -2.8602237      0.84989904     0.0043647104 
     33750   0.56473756    -2.0100285     -2.8566054      0.8465769      0.0028610264 
     33800   0.56470181    -2.0100716     -2.8565949      0.8465233     -0.0011977652 
     33850   0.5680566     -2.0098143     -2.8613666      0.85155234     0.0020106575 
     33900   0.5828355     -2.0099622     -2.883669       0.87370685     0.0024695482 
     33950   0.58579769    -2.0106617     -2.888809       0.87814735    -0.0020650395 
     34000   0.5739597     -2.0103544     -2.8707559      0.86040147    -0.0015415037 
     34050   0.57286894    -2.0104718     -2.8692382      0.85876634     0.0035719709 
     34100   0.59125038    -2.0106231     -2.8969443      0.88632127    -0.001291456  
     34150   0.57734709    -2.0111499     -2.8766293      0.86547937     0.0038920519 
     34200   0.57536889    -2.0108342     -2.8733481      0.86251392     0.00080698247
     34250   0.58844087    -2.0110645     -2.8931741      0.88210964     0.0033193889 
     34300   0.58838267    -2.0106651     -2.8926875      0.8820224      0.00033906747
     34350   0.58573763    -2.0106174     -2.8886747      0.87805732    -0.00025019786
     34400   0.5899694     -2.0104634     -2.8948644      0.884401       0.0022847367 
     34450   0.58454916    -2.0094869     -2.8857627      0.87627572    -0.0021337252 
     34500   0.56793869    -2.0094631     -2.8608387      0.85137559     0.0029562204 
     34550   0.57252843    -2.0099884     -2.8682442      0.85825589     0.00090334975
     34600   0.57454507    -2.0106615     -2.8719405      0.86127896     0.006085696  
     34650   0.5927674     -2.010014      -2.8986093      0.88859538     0.00042981004
     34700   0.59746729    -2.0096192     -2.90526        0.89564081     0.0018672716 
     34750   0.57867209    -2.0095062     -2.8769719      0.86746563     0.0023018204 
     34800   0.57908654    -2.0091016     -2.8771886      0.86808691     0.00043060462
     34850   0.57130047    -2.009508      -2.8659231      0.85641511     0.0020832129 
     34900   0.56793916    -2.0097153     -2.8610916      0.8513763     -0.00063975301
     34950   0.57659189    -2.0101762     -2.8745235      0.86434728     0.0013225073 
     35000   0.58938388    -2.0111802     -2.8947035      0.88352328     0.0015517561 
     35050   0.58261117    -2.0107657     -2.8841363      0.87337056    -0.0014769621 
     35100   0.58868726    -2.0106925     -2.8931715      0.88247899     0.0044653593 
     35150   0.60321187    -2.0108501     -2.9151024      0.90425229     0.0032421662 
     35200   0.60839928    -2.0102145     -2.9222431      0.91202855    -0.0017877141 
     35250   0.60234109    -2.0102014     -2.9131484      0.90294694     0.0019672903 
     35300   0.59129036    -2.0103366     -2.8967178      0.8863812      0.00039818079
     35350   0.59781385    -2.0111462     -2.9073065      0.89616033    -0.00029811395
     35400   0.60747855    -2.012288      -2.9229363      0.91064831     0.0019895049 
     35450   0.60435682    -2.0126249     -2.9185936      0.90596865     0.00074711158
     35500   0.60569442    -2.0129404     -2.9209142      0.90797378     0.0016525515 
     35550   0.60022175    -2.0129835     -2.9127534      0.89976992     0.0033017437 
     35600   0.59437428    -2.0130544     -2.9040586      0.89100419     0.0041592952 
     35650   0.60945482    -2.0130328     -2.9266437      0.91361087     0.00303433   
     35700   0.61593454    -2.012529      -2.9358533      0.92332437    -0.0031882147 
     35750   0.61136244    -2.0121099     -2.9285804      0.91647052     0.0010196568 
     35800   0.60609275    -2.0129541     -2.921525       0.90857091     0.00077365177
     35850   0.59260977    -2.0139482     -2.9023073      0.88835909     0.0021464895 
     35900   0.59735486    -2.0143853     -2.9098576      0.89547228     0.0023728888 
     35950   0.59838249    -2.014681      -2.9116938      0.89701276     0.0059101405 
     36000   0.59673231    -2.0147465     -2.9092856      0.89453903     0.0046951387 
     36050   0.59397309    -2.0140252     -2.904428       0.89040278     0.0019870545 
     36100   0.59844952    -2.0128971     -2.9100103      0.89711324    -0.00081115978
     36150   0.60016259    -2.0128787     -2.9125599      0.89968123     0.0025404312 
     36200   0.59916361    -2.0130268     -2.9112105      0.8981837      0.0038722303 
     36250   0.59850094    -2.012788      -2.9099783      0.89719031     0.00048375634
     36300   0.59806271    -2.0130738     -2.9096072      0.89653339     0.00094982771
     36350   0.61208251    -2.013003      -2.9305529      0.91754994     0.0041242032 
     36400   0.6294519     -2.0130436     -2.9566313      0.94358774     0.00099273327
     36450   0.61143181    -2.0133173     -2.9298918      0.9165745      0.0022180324 
     36500   0.59151179    -2.0131992     -2.8999124      0.88671314     0.00015954244
     36550   0.59264661    -2.0131939     -2.9016083      0.88841431     0.001710243  
     36600   0.60171977    -2.0134484     -2.915464       0.90201554     0.0021519216 
     36650   0.60525469    -2.0135034     -2.920818       0.90731461    -0.00048356512
     36700   0.60352575    -2.0139737     -2.9186966      0.90472282     0.0021678328 
     36750   0.60705774    -2.0138811     -2.9238986      0.9100175      0.0032182888 
     36800   0.61069682    -2.0139759     -2.9294486      0.9154727      0.0012696957 
     36850   0.60911169    -2.0147311     -2.9278276      0.9130965      0.0023616487 
     36900   0.61065699    -2.0145478     -2.9299608      0.915413       0.0045385085 
     36950   0.60961186    -2.014606      -2.9284523      0.91384628     0.0060246395 
     37000   0.61256248    -2.0146852     -2.9329546      0.91826944    -0.0005038252 
     37050   0.60328176    -2.013856      -2.918213       0.90435706     0.0020690179 
     37100   0.6102046     -2.0132878     -2.9280226      0.91473483    -0.00051093803
     37150   0.59803827    -2.0131553     -2.909652       0.89649675    -0.00025130332
     37200   0.60349349    -2.0129606     -2.9176351      0.90467447     0.00027443466
     37250   0.61137603    -2.0131969     -2.9296878      0.91649088     0.0029969057 
     37300   0.60638813    -2.0132226     -2.9222363      0.90901371     0.00040409706
     37350   0.61913751    -2.0125725     -2.9406983      0.92812583     0.0018743882 
     37400   0.61811174    -2.013531      -2.9401191      0.92658813    -0.00053539468
     37450   0.59788194    -2.0139388     -2.9102012      0.89626239     0.0016405247 
     37500   0.58653678    -2.0144962     -2.8937515      0.87925529     0.00088661945
     37550   0.60710462    -2.0158289     -2.9259167      0.91008777     0.0019257263 
     37600   0.61598733    -2.015935      -2.9393385      0.9234035      0.0048877446 
     37650   0.62024292    -2.0155374     -2.9453203      0.9297829      0.0048918907 
     37700   0.6131727     -2.0156383     -2.9348225      0.91918421     0.0044536981 
     37750   0.62663804    -2.0158842     -2.9552538      0.93936959     0.00094305217
     37800   0.62110768    -2.0155976     -2.9466768      0.93107923     0.0017020041 
     37850   0.61597926    -2.016518      -2.9399094      0.92339142     0.0076200768 
     37900   0.61487859    -2.0160353     -2.9377768      0.92174144     0.0030674963 
     37950   0.61547032    -2.015692      -2.9383205      0.92262847    -0.00044809724
     38000   0.62251312    -2.0152482     -2.9484343      0.93318607    -0.0025517492 
     38050   0.6052289     -2.0143179     -2.9215938      0.90727594     0.0023413289 
     38100   0.61786494    -2.0141519     -2.9403701      0.92621817     0.001753617  
     38150   0.61684969    -2.0142444     -2.9389407      0.92469624     0.0070540108 
     38200   0.61653218    -2.0137463     -2.9379665      0.92422026     0.0019988167 
     38250   0.61744049    -2.0131162     -2.938698       0.92558188    -0.0039322216 
     38300   0.60417252    -2.0136327     -2.9193251      0.90569237     0.0030461856 
     38350   0.61471486    -2.0135525     -2.9350485      0.921496       0.00052518345
     38400   0.62766495    -2.0138163     -2.9547253      0.94090899     0.0021162902 
     38450   0.62509949    -2.014358      -2.9514212      0.93706321     0.004397288  
     38500   0.6105022     -2.0140084     -2.9291893      0.91518096     0.00067964044
     38550   0.60603237    -2.0140654     -2.9225458      0.90848039    -0.0012989052 
     38600   0.59651419    -2.0135659     -2.907778       0.89421206    -0.00011808307
     38650   0.60201543    -2.0133849     -2.9158436      0.90245876    -0.0005800574 
     38700   0.61304892    -2.0137123     -2.932711       0.91899865    -0.00092220413
     38750   0.63460133    -2.014597      -2.9659041      0.95130706     0.0017084661 
     38800   0.63712658    -2.0156117     -2.9707043      0.95509256     0.0066028663 
     38850   0.61817224    -2.0156542     -2.9423331      0.92667883     0.0057452676 
     38900   0.61963917    -2.0155294     -2.9444072      0.92887784     0.0042036744 
     38950   0.61200109    -2.0143491     -2.931777       0.91742789     2.9629416e-05
     39000   0.60025048    -2.0142887     -2.9141017      0.89981298    -0.00056881908
     39050   0.60012238    -2.0142695     -2.9138904      0.89962096    -0.0016312971 
     39100   0.60101948    -2.0145229     -2.9154886      0.90096577     0.0013619821 
     39150   0.61657995    -2.014223      -2.9385149      0.92429188     0.0033554175 
     39200   0.6099032     -2.0155373     -2.9298203      0.91428301     0.0017190905 
     39250   0.6035315     -2.0154635     -2.920195       0.90473144     0.0018768281 
     39300   0.61930863    -2.0165082     -2.9448906      0.92838234     0.006000543  
     39350   0.60841184    -2.0157533     -2.9278006      0.91204738     0.0040874129 
     39400   0.59559588    -2.0153294     -2.9081649      0.89283545     0.0028209221 
     39450   0.59967732    -2.015319      -2.9142728      0.89895378     0.0029589309 
     39500   0.60878777    -2.0154832     -2.9280941      0.91261091     0.0016837556 
     39550   0.59685761    -2.0151191     -2.9098459      0.89472686     0.0031352011 
     39600   0.5941476     -2.0149511     -2.9056155      0.89066439    -0.0012632632 
     39650   0.59545481    -2.0147378     -2.9073617      0.89262398     0.0025098427 
     39700   0.61089864    -2.0141023     -2.9298776      0.91577524     0.0044363213 
     39750   0.6226113     -2.0137808     -2.947114       0.93333325     0.0031813044 
     39800   0.60394951    -2.01334       -2.918698       0.90535806     0.001453608  
     39850   0.60714101    -2.0133397     -2.923482       0.91014233     0.0013991963 
     39900   0.59541307    -2.0132814     -2.9058428      0.8925614      5.9189932e-05
     39950   0.59668827    -2.0143608     -2.9088338      0.89447301     0.00024164448
     40000   0.59451136    -2.0142085     -2.9054182      0.89120969     0.0048051624 
     40050   0.60322517    -2.0144917     -2.9187639      0.90427223     0.0012798339 
     40100   0.58971787    -2.0144748     -2.8984987      0.88402395    -0.00085933581
     40150   0.58825597    -2.0145962     -2.8964287      0.88183246    -0.0013860432 
     40200   0.60936879    -2.0151556     -2.9286375      0.91348191     0.002333611  
     40250   0.60583601    -2.0151679     -2.923354       0.90818605     0.0099393582 
     40300   0.61830677    -2.015487      -2.9423675      0.92688049     0.0024232286 
     40350   0.61368091    -2.0147144     -2.9346605      0.91994605     0.0044224659 
     40400   0.60094059    -2.0144008     -2.9152483      0.9008475      0.00089800799
     40450   0.60717654    -2.0132225     -2.9234181      0.91019558    -0.00050969494
     40500   0.61063709    -2.0135268     -2.92891        0.91538316     0.0036736902 
     40550   0.60894621    -2.0135612     -2.9264096      0.91284843     0.00079093297
     40600   0.59796199    -2.0138243     -2.9102067      0.8963824      0.0025619722 
     40650   0.60506905    -2.0133617     -2.920398       0.90703633     0.00050191453
     40700   0.61284162    -2.013743      -2.9324309      0.91868789     0.0022614571 
     40750   0.60656981    -2.0135777     -2.9228637      0.90928606     0.0044668175 
     40800   0.597781      -2.0137174     -2.9098285      0.89611108     0.0026204207 
     40850   0.5984204     -2.0138599     -2.9109295      0.89706958     0.0034025677 
     40900   0.58819916    -2.0143778     -2.8961252      0.88174731     0.0013688879 
     40950   0.59921933    -2.0140541     -2.9123213      0.89826723     0.00065090478
     41000   0.58878981    -2.0135565     -2.8961892      0.88263273     0.0025876383 
     41050   0.5900283     -2.0132211     -2.8977104      0.88448931    -0.0016680637 
     41100   0.60678796    -2.0134787     -2.9230917      0.90961307    -0.00062990326
     41150   0.60696991    -2.0132399     -2.9231258      0.90988583     0.0049112249 
     41200   0.59876655    -2.0129137     -2.9105022      0.89758848     0.0046642082 
     41250   0.6025265     -2.0130749     -2.9162997      0.90322488     0.00040269411
     41300   0.60499416    -2.0132941     -2.9202182      0.90692406     0.00055809221
     41350   0.60214815    -2.0131838     -2.9158415      0.90265772     0.006114463  
     41400   0.6138839     -2.0136438     -2.9338942      0.92025034     0.0019980329 
     41450   0.6053608     -2.0135972     -2.9210709      0.90747368     0.0047338373 
     41500   0.60642199    -2.0150061     -2.9240706      0.90906446     0.0025164606 
     41550   0.59972794    -2.0146292     -2.9136589      0.89902966     0.0032933439 
     41600   0.60452514    -2.0157067     -2.9219276      0.90622096     0.0015410337 
     41650   0.60406037    -2.0153096     -2.9208339      0.90552425     0.0028661509 
     41700   0.5978726     -2.0145687     -2.9108171      0.8962484      0.005825283  
     41750   0.59731031    -2.0145693     -2.9099748      0.89540548     0.0029488595 
     41800   0.60126332    -2.0141742     -2.9155055      0.90133129     0.00083580393
     41850   0.59904246    -2.0132807     -2.9112828      0.89800208    -0.00026261569
     41900   0.60217131    -2.0135162     -2.9162087      0.90269243    -0.0017408042 
     41950   0.61132907    -2.0137168     -2.9301372      0.91642048     0.0026503649 
     42000   0.61202716    -2.014198      -2.931665       0.91746696     0.0066885701 
     42050   0.61016697    -2.0143589     -2.9290373      0.91467842     0.0028436628 
     42100   0.59998143    -2.0137182     -2.9131279      0.89940966    -0.0017582414 
     42150   0.5957614     -2.013364      -2.9064475      0.89308358     0.0017686338 
     42200   0.60936999    -2.0142025     -2.9276862      0.9134837      0.0035075392 
     42250   0.61582443    -2.0145692     -2.9377285      0.92315931     0.0036689049 
     42300   0.61190698    -2.0154313     -2.9327181      0.91728681     0.00067710175
     42350   0.5991653     -2.0163436     -2.9145298      0.89818623     0.00080451745
     42400   0.59785784    -2.0160379     -2.9122642      0.89622626     0.0060425173 
     42450   0.61608594    -2.0155992     -2.9391505      0.92355132     0.0036859032 
     42500   0.60995717    -2.0148574     -2.9292214      0.91436393     0.0023164796 
     42550   0.59420351    -2.0142896     -2.9050378      0.8907482      0.0027318518 
     42600   0.58056       -2.0138315     -2.8841273      0.87029572     0.0011651412 
     42650   0.60260272    -2.0137206     -2.9170597      0.90333913    -0.0017881393 
     42700   0.60185056    -2.0137634     -2.915975       0.90221161     0.0036980471 
     42750   0.61339694    -2.0139731     -2.9334935      0.91952035     0.0012448878 
     42800   0.61302882    -2.0138533     -2.9328218      0.91896851     0.0013076971 
     42850   0.61203775    -2.0132713     -2.9307541      0.91748283     0.0014319276 
     42900   0.59714108    -2.0133281     -2.9084799      0.89515179     0.0013263938 
     42950   0.59382681    -2.0133954     -2.9035789      0.89018351     0.00094006577
     43000   0.58992295    -2.0137689     -2.8981003      0.88433137     0.0013812331 
     43050   0.59281738    -2.0136539     -2.9023242      0.8886703      0.00021248339
     43100   0.59592992    -2.0139957     -2.9073319      0.8933362     -0.00034472556
     43150   0.5975883     -2.0143252     -2.9101475      0.89582222     0.0054944405 
     43200   0.59756043    -2.0146639     -2.9104443      0.89578043     0.0048715544 
     43250   0.58990132    -2.0152795     -2.8995784      0.88429894     0.0056588723 
     43300   0.60810063    -2.0145629     -2.9261438      0.91158085     0.0028261487 
     43350   0.60367885    -2.0143086     -2.9192609      0.90495233    -0.0002617739 
     43400   0.58949307    -2.0143596     -2.8980465      0.88368695     0.00029136872
     43450   0.59644795    -2.0145707     -2.9086835      0.89411276     0.0019180529 
     43500   0.59734762    -2.0145914     -2.9100528      0.89546142    -0.00082380175
     43550   0.59650703    -2.0154953     -2.9096966      0.89420132     0.0043019763 
     43600   0.60703671    -2.0151474     -2.9251333      0.90998596     0.0039089254 
     43650   0.60283933    -2.0152398     -2.9189336      0.90369383     0.0030903063 
     43700   0.60395952    -2.0156183     -2.9209914      0.90537307     0.0014506775 
     43750   0.59857382    -2.0154269     -2.9127265      0.89729957     0.0033564441 
     43800   0.61130433    -2.0162091     -2.9325925      0.91638339     0.00069817668
     43850   0.59420275    -2.0163235     -2.9070706      0.89074706     0.0056011642 
     43900   0.59107186    -2.0161229     -2.9021765      0.88605366     0.0038024963 
     43950   0.58583662    -2.0159846     -2.8941903      0.8782057     -4.8171551e-05
     44000   0.58321593    -2.0155755     -2.8898526      0.87427712     0.0030108231 
     44050   0.59914636    -2.0156176     -2.9137754      0.89815784     0.0043369871 
     44100   0.60750152    -2.0154388     -2.9261216      0.91068275     0.001060016  
     44150   0.57883915    -2.0154006     -2.8831167      0.86771607     0.0041847999 
     44200   0.60262798    -2.0144601     -2.9178371      0.903377      -0.002025539  
     44250   0.59056113    -2.0142479     -2.899536       0.88528804     0.0023468508 
     44300   0.59046339    -2.0148679     -2.9000094      0.88514152     0.0041766419 
     44350   0.60130356    -2.0145552     -2.9159468      0.90139162     0.0032956083 
     44400   0.60078248    -2.0153988     -2.9160092      0.90061048     0.0052601172 
     44450   0.59149882    -2.0154907     -2.9021844      0.8866937     -0.0011103361 
     44500   0.58268621    -2.0154107     -2.8888937      0.87348305     0.0034175234 
     44550   0.59355501    -2.0153373     -2.9051134      0.88977605     0.00096418034
     44600   0.59855646    -2.0153583     -2.9126318      0.89727354    -0.00022516744
     44650   0.59265311    -2.0148168     -2.9032409      0.88842406     0.0058754585 
     44700   0.57919288    -2.0141805     -2.8824268      0.86824632     0.0039879202 
     44750   0.59291448    -2.0136571     -2.902473       0.88881586    -0.0013787851 
     44800   0.5931357     -2.0135915     -2.902739       0.88914749     0.00014306135
     44850   0.58713733    -2.0129964     -2.893152       0.88015555     0.0036167658 
     44900   0.5996051     -2.0131537     -2.9119992      0.89884552     0.0023432403 
     44950   0.59562893    -2.0135381     -2.9064231      0.89288499     0.0035445158 
     45000   0.57994896    -2.0132499     -2.8826296      0.86937973    -0.001804013  
     45050   0.57491208    -2.0127491     -2.8745783      0.86182915     0.00065670639
     45100   0.58054316    -2.0125878     -2.8828582      0.87027048     0.0024719479 
     45150   0.58832163    -2.012718      -2.8946489      0.88193089     0.00070001741
     45200   0.58901725    -2.0124151     -2.8953888      0.88297368    -0.0017820404 
     45250   0.58430781    -2.0124737     -2.8883877      0.87591393     0.002515007  
     45300   0.60786992    -2.0128382     -2.9240732      0.91123501     0.0015988903 
     45350   0.59479993    -2.0129641     -2.9046064      0.89164227     0.0058345472 
     45400   0.59692273    -2.0128309     -2.9076554      0.89482448    -0.0019649604 
     45450   0.58864134    -2.013103      -2.8955132      0.88241016     0.0018974027 
     45500   0.60289094    -2.0141498     -2.917921       0.9037712      0.00080996007
     45550   0.61043008    -2.0149047     -2.9299775      0.91507284     0.0027217564 
     45600   0.62785061    -2.0156512     -2.9568385      0.9411873      0.00120723   
     45650   0.61422905    -2.015638      -2.9364057      0.92076774     0.0072427535 
     45700   0.60674622    -2.0155865     -2.925137       0.90955051     0.0020355194 
     45750   0.60203925    -2.0159081     -2.9184026      0.90249446    -0.00014655592
     45800   0.6143052     -2.0151085     -2.9359903      0.92088188    -0.0010607099 
     45850   0.61376283    -2.0151259     -2.9351948      0.92006885    -0.00093943722
     45900   0.60580348    -2.015162      -2.9232993      0.90813728     0.0034263391 
     45950   0.61954113    -2.0154101     -2.944141       0.92873088     0.001891815  
     46000   0.61603871    -2.0156227     -2.9391032      0.92348053     0.0033136293 
     46050   0.5908466     -2.014628      -2.900344       0.88571597     0.0013119406 
     46100   0.60629819    -2.0145375     -2.9234164      0.90887888    -0.0018995747 
     46150   0.6208731     -2.0148205     -2.945548       0.93072758     0.0024079582 
     46200   0.63082627    -2.0148438     -2.9604918      0.945648       0.003232058  
     46250   0.61939849    -2.0143898     -2.9429068      0.92851704     0.0069307189 
     46300   0.62100159    -2.0147273     -2.9456475      0.9309202      0.0022930149 
     46350   0.60674312    -2.0136298     -2.9231757      0.90954585    -0.00098685684
     46400   0.60226875    -2.0130827     -2.9159212      0.90283849     0.00036037915
     46450   0.58949693    -2.0137566     -2.8974493      0.88369274     0.0017429195 
     46500   0.59131728    -2.0143046     -2.9007262      0.88642156     0.0038870777 
     46550   0.62407902    -2.0142279     -2.9497613      0.93553346     0.00039219158
     46600   0.60202911    -2.0142412     -2.9167205      0.90247926     0.0055290623 
     46650   0.60128976    -2.0140485     -2.9154195      0.90137094     0.0006239375 
     46700   0.59345319    -2.0136357     -2.9032591      0.88962343    -0.00021253482
     46750   0.59016086    -2.0131814     -2.8978694      0.88468802     0.0021240748 
     46800   0.58948717    -2.0130259     -2.896704       0.88367811     0.0035701311 
     46850   0.59028391    -2.0128873     -2.8977598      0.88487247    -0.0021565283 
     46900   0.58630771    -2.0134326     -2.8923445      0.8789119      0.0002644809 
     46950   0.59442587    -2.0134075     -2.904489       0.89108153     0.0020519845 
     47000   0.61009972    -2.0133191     -2.9278967      0.91457762    -0.0004133547 
     47050   0.59801763    -2.0134983     -2.9099641      0.8964658      0.0015819091 
     47100   0.61052416    -2.0136371     -2.928851       0.91521388     0.0012309617 
     47150   0.61194584    -2.0131307     -2.9304758      0.91734506     0.0053825002 
     47200   0.59514536    -2.0134674     -2.9056275      0.89216009     0.0027872534 
     47250   0.61298778    -2.0129047     -2.9318117      0.91890699     0.00074676958
     47300   0.60057864    -2.0127235     -2.9130284      0.90030492     0.0041209479 
     47350   0.60185965    -2.0137528     -2.915978       0.90222523     0.0033003815 
     47400   0.60775419    -2.0135745     -2.924636       0.91106152     0.0011134155 
     47450   0.60410344    -2.0133309     -2.9189197      0.90558881     0.0044274783 
     47500   0.60627778    -2.0135724     -2.9224207      0.90884829    -0.0028142187 
     47550   0.59420444    -2.0141865     -2.9049361      0.8907496      0.0020779607 
     47600   0.59500369    -2.0142829     -2.9062306      0.89194773     0.0062884385 
     47650   0.62015423    -2.0144236     -2.9440735      0.92964996     0.0027510501 
     47700   0.6122791     -2.014366      -2.9322106      0.91784464     0.0026606611 
     47750   0.59390702    -2.0137226     -2.9040263      0.89030374     0.0039087154 
     47800   0.59793866    -2.0132651     -2.9096125      0.89634742    -0.00071405754
     47850   0.60767999    -2.0132859     -2.9242362      0.91095028     0.0041646204 
     47900   0.62175648    -2.012947      -2.9449988      0.93205182     0.002329562  
     47950   0.60555834    -2.0140293     -2.9217991      0.9077698      0.0023353298 
     48000   0.60603626    -2.0133979     -2.9218842      0.90848623     0.00030915724
     48050   0.59857329    -2.0126038     -2.9099026      0.89729878     0.0014741692 
     48100   0.60361959    -2.0130963     -2.9179598      0.90486349     0.0024462323 
     48150   0.60854504    -2.012421      -2.9246681      0.91224705     0.00075769791
     48200   0.60017542    -2.0118368     -2.9115372      0.89970046     0.0018277976 
     48250   0.60773549    -2.0113106     -2.922344       0.91103348     0.00017063805
     48300   0.61310252    -2.0111419     -2.9302209      0.919079       0.0018244472 
     48350   0.61149808    -2.0118381     -2.928512       0.91667384     0.0045913807 
     48400   0.60934635    -2.0122507     -2.925699       0.91344826     0.0039634417 
     48450   0.61499691    -2.0124843     -2.9344032      0.92191881     0.00040321166
     48500   0.6130068     -2.0124318     -2.9313673      0.9189355      0.0034914442 
     48550   0.60976272    -2.0123591     -2.9264315      0.91407242     0.0025823777 
     48600   0.61199937    -2.0121324     -2.9295577      0.91742531     0.0011432607 
     48650   0.61427379    -2.0124466     -2.9332814      0.9208348     -0.00058278343
     48700   0.61778034    -2.0124815     -2.9385729      0.92609134     0.0044967704 
     48750   0.61584574    -2.0121704     -2.9353616      0.92319125     0.0033821178 
     48800   0.61030713    -2.0128587     -2.9277472      0.91488853     0.0018151921 
     48850   0.60371852    -2.013029      -2.9180408      0.90501179     0.0014606549 
     48900   0.60620888    -2.013214      -2.921959       0.908745       0.0047270755 
     48950   0.60623927    -2.0131577     -2.9219482      0.90879055     0.0029140458 
     49000   0.6183022     -2.0130906     -2.9399642      0.92687364    -0.003700572  
     49050   0.61255978    -2.013241      -2.9315064      0.91826539     0.0018664592 
     49100   0.62758727    -2.0127432     -2.9535358      0.94079254     0.0029311841 
     49150   0.62658429    -2.0135608     -2.9528498      0.93928901     0.0034210345 
     49200   0.62277872    -2.014434      -2.9480183      0.93358423     0.0056175455 
     49250   0.60341064    -2.0137396     -2.9182898      0.90455026     0.0032681196 
     49300   0.59092033    -2.0131759     -2.8990024      0.88582651    -0.00078762141
     49350   0.59740516    -2.0131398     -2.9086875      0.89554767     0.00081790317
     49400   0.59880759    -2.0137243     -2.9113743      0.89765001     0.004499663  
     49450   0.60532349    -2.0124582     -2.9198759      0.90741774     0.0042979824 
     49500   0.60005027    -2.0116779     -2.9111908      0.89951286     0.0012717451 
     49550   0.5969788     -2.0120984     -2.907007       0.89490854     0.0017295445 
     49600   0.61834168    -2.0122766     -2.9392094      0.92693282     0.0019461329 
     49650   0.62155409    -2.0119        -2.9436484      0.93174843     0.0011976892 
     49700   0.60160195    -2.0122217     -2.9140606      0.90183892     0.003979722  
     49750   0.60104301    -2.0121034     -2.9131044      0.90100104     0.0014932071 
     49800   0.60294939    -2.0123365     -2.9161953      0.90385882    -0.00079545687
     49850   0.59583718    -2.0128908     -2.9060879      0.89319717    -0.0031002285 
     49900   0.60213911    -2.0127914     -2.9154355      0.90264416     0.003350521  
     49950   0.62039203    -2.0136122     -2.9436187      0.93000643     0.0055283609 
     50000   0.62109461    -2.0136157     -2.9446753      0.93105964     0.005151505  
     50050   0.60230711    -2.0125007     -2.9153967      0.90289601    -3.1728659e-05
     50100   0.58761285    -2.0123521     -2.8932205      0.88086838     0.0010658356 
     50150   0.6117745     -2.0123737     -2.9294619      0.91708821     0.0039532108 
     50200   0.59771268    -2.0119193     -2.9079279      0.89600867     0.0082088514 
     50250   0.60697041    -2.0119243     -2.9218109      0.90988658    -0.00084693098
     50300   0.59606914    -2.0121461     -2.905691       0.8935449     -0.0012675692 
     50350   0.59336016    -2.012566      -2.9020499      0.88948396     0.0024202303 
     50400   0.610808      -2.0128125     -2.9284518      0.91563936     0.0022785141 
     50450   0.59130719    -2.0131279     -2.8995343      0.88640644     0.0062973239 
     50500   0.60220072    -2.0130061     -2.9157426      0.90273651     0.0038713768 
     50550   0.61474766    -2.0131385     -2.9346837      0.92154516     0.001727032  
     50600   0.61338757    -2.0133322     -2.9328385      0.9195063      0.0038192859 
     50650   0.60079286    -2.0125616     -2.9131876      0.90062605     0.00042508396
     50700   0.6012496     -2.0125769     -2.9138876      0.90131072    -0.0029860641 
     50750   0.60449351    -2.0125335     -2.9187071      0.90617356    -0.0010314978 
     50800   0.5975248     -2.0129936     -2.9087206      0.89572702     0.0048157861 
     50850   0.61849118    -2.0133884     -2.9405454      0.92715693     0.0053571038 
     50900   0.62379546    -2.0135588     -2.9486672      0.93510838     0.0078261329 
     50950   0.60223152    -2.0126827     -2.9154654      0.90278269     0.0030313322 
     51000   0.60498062    -2.0122757     -2.9191794      0.90690376    -0.0032334491 
Loop time of 10.5085 on 1 procs for 50000 steps with 1600 atoms

Performance: 2055469.177 tau/day, 4758.031 timesteps/s, 7.613 Matom-step/s
96.8% CPU use with 1 MPI tasks x 1 OpenMP threads

MPI task timing breakdown:
Section |  min time  |  avg time  |  max time  |%varavg| %total
---------------------------------------------------------------
Pair    | 7.6966     | 7.6966     | 7.6966     |   0.0 | 73.24
Neigh   | 2.023      | 2.023      | 2.023      |   0.0 | 19.25
Comm    | 0.29588    | 0.29588    | 0.29588    |   0.0 |  2.82
Output  | 0.010436   | 0.010436   | 0.010436   |   0.0 |  0.10
Modify  | 0.32574    | 0.32574    | 0.32574    |   0.0 |  3.10
Other   |            | 0.1569     |            |       |  1.49

Nlocal:           1600 ave        1600 max        1600 min
Histogram: 1 0 0 0 0 0 0 0 0 0
Nghost:           1070 ave        1070 max        1070 min
Histogram: 1 0 0 0 0 0 0 0 0 0
Neighs:          44962 ave       44962 max       44962 min
Histogram: 1 0 0 0 0 0 0 0 0 0

Total # of neighbors = 44962
Ave neighs/atom = 28.10125
Neighbor list builds = 4734
Dangerous builds = 0


Total wall time: 0:00:10
