LAMMPS (22 Jul 2025 - Update 2)
OMP_NUM_THREADS environment is not set. Defaulting to 1 thread.
  using 1 OpenMP thread(s) per MPI task

# 3D Lennard-Jones melt
# 1) Initialization
units lj
dimension 3
atom_style atomic
boundary p p p
# 2) System definition
region simbox block -20 20 -20 20 -20 20
create_box 2 simbox
Created orthogonal box = (-20 -20 -20) to (20 20 20)
  1 by 1 by 1 MPI processor grid
create_atoms 1 random 1500 34134 simbox overlap 0.3
Created 1500 atoms
  using lattice units in orthogonal box = (-20 -20 -20) to (20 20 20)
  create_atoms CPU = 0.049 seconds
create_atoms 2 random 100 12756 simbox overlap 0.3
Created 100 atoms
  using lattice units in orthogonal box = (-20 -20 -20) to (20 20 20)
  create_atoms CPU = 0.009 seconds
# 3) Settings
mass 1 1.0
mass 2 5.0
pair_style lj/cut 4.0
pair_coeff 1 1 1.0 1.0
pair_coeff 2 2 0.5 3.0
# 4) Monitoring
thermo 10
thermo_style custom step ke pe
# 5) Run

minimize 1.0e-6 1.0e-6 1000 10000
Generated 1 of 1 mixed pair_coeff terms from geometric mixing rule
Neighbor list info ...
  update: every = 1 steps, delay = 0 steps, check = yes
  max neighbors/atom: 2000, page size: 100000
  master list distance cutoff = 4.3
  ghost atom cutoff = 4.3
  binsize = 2.15, bins = 19 19 19
  1 neighbor lists, perpetual/occasional/extra = 1 0 0
  (1) pair lj/cut, perpetual
      attributes: half, newton on
      pair build: half/bin/atomonly/newton
      stencil: half/bin/3d
      bin: standard
Per MPI rank memory allocation (min/avg/max) = 4.279 | 4.279 | 4.279 Mbytes
   Step         KinEng         PotEng    
         0   0              951929.29    
        10   0              3.5701279    
        20   0             -0.29919041   
        30   0             -0.3941731    
        40   0             -0.46170501   
        50   0             -0.51118404   
        60   0             -0.55364542   
        70   0             -0.60105929   
        80   0             -0.63908384   
        90   0             -0.6799505    
       100   0             -0.71603181   
       110   0             -0.74686329   
       120   0             -0.78427168   
       130   0             -0.81793383   
       140   0             -0.85272023   
       150   0             -0.88467529   
       160   0             -0.91905133   
       170   0             -0.94055567   
       180   0             -0.96826868   
       190   0             -0.99526689   
       200   0             -1.0235205    
       210   0             -1.0546118    
       220   0             -1.0885857    
       230   0             -1.1127997    
       240   0             -1.1389554    
       250   0             -1.1691372    
       260   0             -1.1943089    
       270   0             -1.2196439    
       280   0             -1.2428259    
       290   0             -1.261349     
       300   0             -1.2786271    
       310   0             -1.2957215    
       320   0             -1.3085707    
       330   0             -1.3231793    
       340   0             -1.3419587    
       350   0             -1.3630459    
       360   0             -1.3784139    
       370   0             -1.3919535    
       380   0             -1.4040548    
       390   0             -1.4200339    
       400   0             -1.4392621    
       410   0             -1.4525124    
       420   0             -1.4683039    
       430   0             -1.4810466    
       440   0             -1.4938492    
       450   0             -1.506964     
       460   0             -1.5191082    
       470   0             -1.5323546    
       480   0             -1.5411332    
       490   0             -1.5479842    
       500   0             -1.5596297    
       510   0             -1.5704931    
       520   0             -1.5781983    
       530   0             -1.586424     
       540   0             -1.592696     
       550   0             -1.6011967    
       560   0             -1.6092187    
       570   0             -1.6168917    
       580   0             -1.6347843    
       590   0             -1.6464403    
       600   0             -1.6568153    
       610   0             -1.6729961    
       620   0             -1.6852424    
       630   0             -1.694955     
       640   0             -1.7030552    
       650   0             -1.7139375    
       660   0             -1.7240308    
       670   0             -1.7352678    
       680   0             -1.742982     
       690   0             -1.7507699    
       700   0             -1.7560748    
       710   0             -1.762649     
       720   0             -1.7701211    
       730   0             -1.7819023    
       740   0             -1.7909312    
       750   0             -1.800383     
       760   0             -1.810547     
       770   0             -1.8223486    
       780   0             -1.8305968    
       790   0             -1.8375663    
       800   0             -1.8461707    
       810   0             -1.8527712    
       820   0             -1.8602482    
       830   0             -1.8671712    
       840   0             -1.8730859    
       850   0             -1.8788771    
       860   0             -1.8854009    
       870   0             -1.8904802    
       880   0             -1.8963861    
       890   0             -1.9049259    
       900   0             -1.9101198    
       910   0             -1.9169156    
       920   0             -1.9236513    
       930   0             -1.9284375    
       940   0             -1.933747     
       950   0             -1.9384656    
       960   0             -1.9425092    
       970   0             -1.9506596    
       980   0             -1.9574315    
       990   0             -1.966573     
      1000   0             -1.9749736    
Loop time of 0.352037 on 1 procs for 1000 steps with 1600 atoms

97.6% CPU use with 1 MPI tasks x 1 OpenMP threads

Minimization stats:
  Stopping criterion = max iterations
  Energy initial, next-to-last, final = 
      951929.289785733   -1.9744204982741  -1.97497359019848
  Force two-norm initial, final = 7.9345356e+10 12.501082
  Force max component initial, final = 5.4329265e+10 3.4530453
  Final line search alpha, max atom move = 0.017879424 0.06173846
  Iterations, force evaluations = 1000 1969

MPI task timing breakdown:
Section |  min time  |  avg time  |  max time  |%varavg| %total
---------------------------------------------------------------
Pair    | 0.14819    | 0.14819    | 0.14819    |   0.0 | 42.10
Neigh   | 0.13207    | 0.13207    | 0.13207    |   0.0 | 37.51
Comm    | 0.015777   | 0.015777   | 0.015777   |   0.0 |  4.48
Output  | 0.0004944  | 0.0004944  | 0.0004944  |   0.0 |  0.14
Modify  | 0          | 0          | 0          |   0.0 |  0.00
Other   |            | 0.05551    |            |       | 15.77

Nlocal:           1600 ave        1600 max        1600 min
Histogram: 1 0 0 0 0 0 0 0 0 0
Nghost:           1246 ave        1246 max        1246 min
Histogram: 1 0 0 0 0 0 0 0 0 0
Neighs:           7877 ave        7877 max        7877 min
Histogram: 1 0 0 0 0 0 0 0 0 0

Total # of neighbors = 7877
Ave neighs/atom = 4.923125
Neighbor list builds = 358
Dangerous builds = 0

# PART B - MOLECULAR DYNAMICS
# 4) Monitoring
thermo 50
thermo_style custom step temp etotal pe ke press

# 5) Run
fix mynve all nve
fix mylgv all langevin 1.0 1.0 0.1 10917
timestep 0.005
dump mydmp all atom 100 dump.lj
run 15000
Generated 1 of 1 mixed pair_coeff terms from geometric mixing rule
Per MPI rank memory allocation (min/avg/max) = 3.155 | 3.155 | 3.155 Mbytes
   Step          Temp          TotEng         PotEng         KinEng         Press     
      1000   0             -1.9749736     -1.9749736      0             -0.0004684835 
      1050   0.95238569    -0.068796181   -1.4964819      1.4276857      0.034368035  
      1100   0.99028807     0.24119712    -1.2433066      1.4845037      0.035754332  
      1150   1.0085365      0.3708935     -1.1409657      1.5118592      0.027048821  
      1200   1.0046445      0.44672738    -1.0592975      1.5060249      0.024315323  
      1250   0.99124192     0.48183403    -1.0040996      1.4859336      0.022186912  
      1300   0.98280867     0.52163888    -0.95165274     1.4732916      0.022273665  
      1350   0.99720944     0.59558222    -0.89929705     1.4948793      0.024592503  
      1400   1.0175519      0.64246028    -0.88291364     1.5253739      0.02098815   
      1450   0.99605776     0.64426186    -0.84889097     1.4931528      0.021825345  
      1500   0.98852534     0.64144363    -0.84041764     1.4818613      0.020349029  
      1550   1.0092331      0.71512958    -0.79777386     1.5129034      0.021715301  
      1600   1.0020726      0.72882912    -0.77334033     1.5021694      0.018059082  
      1650   1.0059868      0.76052824    -0.74750881     1.508037       0.02049714   
      1700   0.99776085     0.78479371    -0.71091217     1.4957059      0.021539723  
      1750   0.99995394     0.80678609    -0.69220737     1.4989935      0.022034204  
      1800   1.0099017      0.82311268    -0.69079305     1.5139057      0.020409426  
      1850   0.96493152     0.76797221    -0.67852044     1.4464927      0.019894676  
      1900   0.98796887     0.8203699     -0.66065719     1.4810271      0.018794007  
      1950   0.99599206     0.85365571    -0.63939863     1.4930543      0.021149832  
      2000   1.005914       0.87456649    -0.63336141     1.5079279      0.022735445  
      2050   1.0054591      0.8759241     -0.63132199     1.5072461      0.022056331  
      2100   0.99483148     0.88396501    -0.60734956     1.4913146      0.023600724  
      2150   0.99075066     0.87852701    -0.60667015     1.4851972      0.019829411  
      2200   1.0046973      0.91088373    -0.59522032     1.506104       0.019988284  
      2250   0.99484867     0.90094089    -0.59039944     1.4913403      0.019685906  
      2300   1.0027853      0.93381629    -0.56942153     1.5032378      0.021223725  
      2350   0.99289762     0.92402514    -0.56439045     1.4884156      0.019779847  
      2400   0.9992806      0.94961168    -0.54837239     1.4979841      0.021632964  
      2450   1.0089229      0.96694587    -0.54549258     1.5124384      0.020009291  
      2500   0.98828639     0.953201      -0.52830207     1.4815031      0.019494358  
      2550   0.98086905     0.95476159    -0.51562243     1.470384       0.020516113  
      2600   1.0190515      1.0209175     -0.50670439     1.5276219      0.0214922    
      2650   0.99695301     0.9839395     -0.51055536     1.4944949      0.019895071  
      2700   0.99187358     0.99478237    -0.49209813     1.4868805      0.020435992  
      2750   0.99756175     1.0041238     -0.49128365     1.4954074      0.019325305  
      2800   1.0273779      1.0450615     -0.49504211     1.5401036      0.018779499  
      2850   0.99494127     1.0208502     -0.47062896     1.4914791      0.021843076  
      2900   0.98970937     1.0171427     -0.46649352     1.4836362      0.021243476  
      2950   1.0028635      1.0476252     -0.45572993     1.5033551      0.021733753  
      3000   1.0328742      1.0903996     -0.45794333     1.5483429      0.021527139  
      3050   0.95301668     0.97776612    -0.45086544     1.4286316      0.020408098  
      3100   0.9834489      1.023058      -0.45119339     1.4742514      0.019408713  
      3150   0.97303565     1.0198492     -0.43879208     1.4586413      0.021400693  
      3200   0.97375086     1.0274741     -0.43223927     1.4597134      0.020510054  
      3250   1.0052415      1.0691038     -0.43781598     1.5069198      0.020063609  
      3300   0.99109539     1.0411443     -0.44456968     1.4857139      0.019275912  
      3350   1.0039885      1.0726812     -0.43236039     1.5050416      0.021185561  
      3400   1.0105932      1.0671273     -0.44781516     1.5149424      0.020494908  
      3450   1.027118       1.0974174     -0.44229666     1.5397141      0.022517737  
      3500   1.011749       1.0779974     -0.43867752     1.5166749      0.019904179  
      3550   0.96164441     1.0052803     -0.43628474     1.4415651      0.018543119  
      3600   1.0078621      1.0724434     -0.43840485     1.5108482      0.019034418  
      3650   1.0026341      1.0730574     -0.42995377     1.5030112      0.020402137  
      3700   1.0078857      1.0723461     -0.43853758     1.5108837      0.020311051  
      3750   0.98911324     1.0479874     -0.43475513     1.4827426      0.020590678  
      3800   1.0093298      1.0848514     -0.42819713     1.5130485      0.021111552  
      3850   1.0206129      1.1020844     -0.42787813     1.5299625      0.021260155  
      3900   1.0073705      1.084065      -0.42604644     1.5101114      0.020574789  
      3950   0.98290466     1.0514309     -0.42200458     1.4734355      0.01928565   
      4000   0.9786394      1.0573577     -0.40968395     1.4670416      0.020868544  
      4050   0.96143267     1.0293672     -0.41188042     1.4412477      0.02099227   
      4100   0.99656318     1.0826873     -0.41122321     1.4939105      0.02282037   
      4150   0.96444062     1.0278279     -0.41792883     1.4457568      0.020105803  
      4200   1.0375472      1.1507867     -0.40456136     1.555348       0.022031188  
      4250   1.0010492      1.1024213     -0.39821405     1.5006353      0.020539973  
      4300   1.0027274      1.0944491     -0.40870193     1.5031511      0.021072367  
      4350   0.98740643     1.0634958     -0.41668817     1.4801839      0.020759136  
      4400   0.97840963     1.0537018     -0.41299539     1.4666972      0.020193081  
      4450   1.003604       1.0964107     -0.40805437     1.5044651      0.021436732  
      4500   1.0140669      1.1273534     -0.39279619     1.5201496      0.021884417  
      4550   1.0152205      1.1241914     -0.39768753     1.5218789      0.020802532  
      4600   0.97587995     1.0669493     -0.39595574     1.462905       0.019345406  
      4650   0.96840819     1.0520686     -0.39963578     1.4517044      0.020194477  
      4700   0.97281044     1.052436      -0.40586768     1.4583036      0.019273043  
      4750   1.0146389      1.1270483     -0.39395881     1.5210071      0.022864971  
      4800   1.0281035      1.1468528     -0.39433854     1.5411914      0.022010273  
      4850   1.0152029      1.122869      -0.39898359     1.5218526      0.02263727   
      4900   0.95117951     1.0393533     -0.38652425     1.4258775      0.020916894  
      4950   1.0050957      1.1225409     -0.38416039     1.5067013      0.01970155   
      5000   1.0219038      1.1429089     -0.38898876     1.5318977      0.020488702  
      5050   1.0062693      1.1229762     -0.38548437     1.5084606      0.020134694  
      5100   0.97791111     1.0879015     -0.37804841     1.4659499      0.020915266  
      5150   0.97620228     1.0872533     -0.37613496     1.4633882      0.020229017  
      5200   1.0339828      1.1841996     -0.36580517     1.5500048      0.022024899  
      5250   0.98478577     1.1057234     -0.37053205     1.4762554      0.020047193  
      5300   0.97479936     1.1044835     -0.35680164     1.4612852      0.019597374  
      5350   0.97762207     1.1193476     -0.34616897     1.4655166      0.020359222  
      5400   0.98470276     1.1217663     -0.35436468     1.476131       0.019997777  
      5450   0.99944289     1.1465684     -0.35165896     1.4982274      0.021670256  
      5500   0.98069427     1.1161843     -0.35393767     1.470122       0.01987272   
      5550   1.0065647      1.1543031     -0.35460026     1.5089034      0.021035795  
      5600   0.97530405     1.1065906     -0.35545109     1.4620417      0.019708199  
      5650   1.0155003      1.173804      -0.34849439     1.5222984      0.022335982  
      5700   1.0015939      1.1515402     -0.34991173     1.5014519      0.021917869  
      5750   1.0220168      1.1825884     -0.34947859     1.532067       0.022006875  
      5800   0.96814913     1.1065631     -0.34475295     1.4513161      0.021416277  
      5850   0.98609016     1.1240744     -0.35413641     1.4782108      0.020596099  
      5900   1.0150062      1.1654514     -0.35610621     1.5215577      0.020588301  
      5950   0.95998772     1.0876708     -0.35141076     1.4390816      0.020159381  
      6000   0.97491803     1.0992122     -0.36225086     1.4614631      0.019276957  
      6050   0.98559025     1.1215093     -0.35595206     1.4774614      0.019463805  
      6100   0.99938097     1.1475518     -0.35058271     1.4981345      0.020773032  
      6150   0.99938071     1.1513488     -0.34678537     1.4981342      0.02163874   
      6200   0.99626577     1.1450551     -0.34840953     1.4934647      0.020082737  
      6250   1.0112989      1.176396      -0.33960428     1.5160002      0.021482664  
      6300   1.0318834      1.2028612     -0.34399649     1.5468577      0.020347736  
      6350   0.99559426     1.1481239     -0.34433411     1.492458       0.021488354  
      6400   0.97986652     1.1267337     -0.34214745     1.4688811      0.022085223  
      6450   1.033247       1.2013533     -0.34754858     1.5489019      0.022535178  
      6500   1.0397707      1.2104177     -0.34826354     1.5586812      0.02292869   
      6550   1.0039356      1.1658895     -0.33907272     1.5049622      0.022531396  
      6600   1.0027605      1.1625932     -0.34060749     1.5032007      0.021497848  
      6650   1.0053178      1.1654183     -0.34161592     1.5070342      0.021235396  
      6700   0.9893341      1.1380023     -0.34507131     1.4830736      0.020745024  
      6750   1.0004019      1.1494133     -0.35025163     1.499665       0.020538785  
      6800   0.9724832      1.0988988     -0.35891429     1.4578131      0.019779781  
      6850   1.013062       1.1642637     -0.35437959     1.5186433      0.022130596  
      6900   0.98391097     1.1316238     -0.34332018     1.474944       0.021602179  
      6950   1.0004782      1.1440694     -0.35570989     1.4997793      0.019740666  
      7000   1.0268874      1.1964963     -0.34287216     1.5393684      0.021977383  
      7050   1.0265702      1.1843531     -0.3545398      1.5388929      0.021655714  
      7100   0.98462905     1.119274      -0.35674653     1.4760205      0.020203193  
      7150   1.0122356      1.1672178     -0.35018666     1.5174045      0.021644271  
      7200   1.0237211      1.1919329     -0.34268906     1.5346219      0.022290504  
      7250   1.010209       1.1732532     -0.34111319     1.5143664      0.020778322  
      7300   0.99576802     1.1473312     -0.34538725     1.4927185      0.022492963  
      7350   0.99673293     1.1477553     -0.34640967     1.494165       0.022608393  
      7400   1.015274       1.165578      -0.35638114     1.5219592      0.022037886  
      7450   1.0097532      1.1547666     -0.35891659     1.5136832      0.021521557  
      7500   0.98420479     1.1118769     -0.36350758     1.4753845      0.020793964  
      7550   1.0015017      1.1468916     -0.35442202     1.5013136      0.021141313  
      7600   0.98057006     1.1204537     -0.34948208     1.4699358      0.021330449  
      7650   0.99694845     1.1494728     -0.34501519     1.494488       0.021504406  
      7700   1.0024306      1.1547147     -0.34799138     1.5027061      0.020349517  
      7750   0.98752928     1.1436553     -0.33671281     1.4803681      0.02042716   
      7800   0.9997533      1.1636619     -0.33503081     1.4986927      0.022477307  
      7850   0.98042237     1.1404748     -0.32923957     1.4697144      0.022610618  
      7900   0.98399585     1.1257441     -0.34932717     1.4750713      0.019791589  
      7950   1.0200594      1.1835532     -0.34557962     1.5291328      0.02173843   
      8000   0.9725771      1.1199318     -0.33802206     1.4579539      0.021293857  
      8050   1.0295467      1.2024773     -0.34087759     1.5433549      0.020331559  
      8100   1.0111584      1.18255       -0.33323963     1.5157896      0.02170207   
      8150   0.98970483     1.146771      -0.33685838     1.4836294      0.020588833  
      8200   1.0191575      1.2037684     -0.32401244     1.5277808      0.02396235   
      8250   0.97778114     1.1416698     -0.32408524     1.465755       0.020536122  
      8300   1.0113681      1.1963671     -0.31973694     1.516104       0.02162644   
      8350   0.99230835     1.1651973     -0.32233491     1.4875322      0.020390998  
      8400   0.98993384     1.1552623     -0.32871043     1.4839727      0.020233197  
      8450   0.99456699     1.1654802     -0.32543789     1.4909181      0.021583356  
      8500   0.9939379      1.1661514     -0.32382361     1.489975       0.021353423  
      8550   0.98568107     1.1550229     -0.32257465     1.4775975      0.019703766  
      8600   0.98778663     1.1667052     -0.31404868     1.4807539      0.019877068  
      8650   1.0218768      1.210854      -0.32100317     1.5318572      0.0202896    
      8700   0.98657764     1.1599449     -0.31899659     1.4789415      0.019530978  
      8750   1.0040057      1.1868104     -0.31825691     1.5050673      0.02077585   
      8800   1.0205089      1.215762      -0.31404459     1.5298065      0.022405306  
      8850   0.95874025     1.1144409     -0.32277063     1.4372116      0.02051299   
      8900   0.96157329     1.1195888     -0.32186965     1.4414585      0.02052452   
      8950   0.97786059     1.1432188     -0.3226553      1.4658741      0.020889711  
      9000   1.016731       1.2037918     -0.32035155     1.5241434      0.02209373   
      9050   1.0023053      1.1913605     -0.31115775     1.5025182      0.022443889  
      9100   0.99046103     1.1698967     -0.31486633     1.484763       0.020790825  
      9150   0.99240229     1.1712862     -0.3163869      1.4876731      0.020371953  
      9200   1.0228279      1.2191934     -0.31408956     1.533283       0.021554566  
      9250   0.99904721     1.1801702     -0.31746397     1.4976342      0.020144719  
      9300   0.99933876     1.1843214     -0.31374987     1.4980713      0.021464501  
      9350   1.0046977      1.1913467     -0.31475794     1.5061046      0.022439004  
      9400   0.99424564     1.1728808     -0.31755555     1.4904364      0.022118618  
      9450   1.0241808      1.2195699     -0.31574111     1.535311       0.022563714  
      9500   0.98783708     1.1591079     -0.3217216      1.4808295      0.021459952  
      9550   0.99069412     1.1616658     -0.32344661     1.4851124      0.019980404  
      9600   1.0108149      1.1987817     -0.31649305     1.5152748      0.022554559  
      9650   1.0267135      1.2130115     -0.32609629     1.5391078      0.023027787  
      9700   0.99292684     1.163939      -0.32452037     1.4884594      0.020849276  
      9750   1.0441523      1.2487635     -0.31648609     1.5652496      0.022667579  
      9800   1.0031466      1.1958406     -0.3079388      1.5037794      0.023851138  
      9850   1.010676       1.1989158     -0.31615067     1.5150665      0.021740066  
      9900   0.97240003     1.1508557     -0.30683271     1.4576884      0.022432364  
      9950   1.0215324      1.2142556     -0.31708533     1.531341       0.022133884  
     10000   1.0075922      1.201205      -0.30923867     1.5104437      0.021008012  
     10050   0.99027915     1.1900795     -0.29441082     1.4844903      0.022046256  
     10100   1.0346837      1.2446979     -0.30635761     1.5510555      0.021739304  
     10150   0.98011149     1.1522671     -0.31698132     1.4692484      0.020323747  
     10200   0.96798265     1.1340936     -0.31697285     1.4510665      0.02057424   
     10250   1.0357677      1.2504833     -0.30219728     1.5526806      0.023321278  
     10300   1.0449101      1.2457227     -0.3206629      1.5663855      0.021699987  
     10350   1.00149        1.1726078     -0.32868838     1.5012961      0.020086641  
     10400   1.0185988      1.2074324     -0.31951084     1.5269433      0.021479026  
     10450   1.0079029      1.1934343     -0.31747505     1.5109094      0.021936166  
     10500   1.0234423      1.211902      -0.32230192     1.5342039      0.021949816  
     10550   0.97206337     1.1321843     -0.32499948     1.4571837      0.020504632  
     10600   1.0384824      1.241008      -0.31574199     1.55675        0.023148245  
     10650   0.99901417     1.1731899     -0.32439476     1.4975847      0.021522357  
     10700   0.99777894     1.1605333     -0.33519974     1.495733       0.020863446  
     10750   1.00144        1.1703685     -0.33085267     1.5012211      0.021086577  
     10800   0.98051056     1.1409948     -0.32885177     1.4698466      0.021400431  
     10850   1.0113235      1.1860055     -0.33003172     1.5160372      0.021553408  
     10900   0.98610476     1.1597742     -0.31845843     1.4782327      0.02092918   
     10950   1.007915       1.1920848     -0.31884266     1.5109275      0.021729544  
     11000   0.96995282     1.1373337     -0.3166862      1.4540199      0.021949535  
     11050   1.0051755      1.1824914     -0.32432943     1.5068209      0.021617339  
     11100   1.0396493      1.2373607     -0.32113861     1.5584993      0.022600062  
     11150   1.026342       1.2210128     -0.31753798     1.5385508      0.021746097  
     11200   1.0007029      1.1861576     -0.31395863     1.5001162      0.021453686  
     11250   1.0190731      1.2168463     -0.31080798     1.5276543      0.020859562  
     11300   1.0056543      1.1936873     -0.3138514      1.5075387      0.021312871  
     11350   1.0145243      1.201594      -0.31924127     1.5208353      0.02115144   
     11400   1.0110918      1.2124905     -0.30319933     1.5156898      0.023053012  
     11450   1.0311991      1.2424714     -0.30336051     1.545832       0.022735362  
     11500   1.0239785      1.2311089     -0.30389885     1.5350078      0.020700568  
     11550   1.0185855      1.2223841     -0.30453931     1.5269234      0.021035678  
     11600   0.99113928     1.1886504     -0.29712931     1.4857797      0.021959513  
     11650   0.9690164      1.1535533     -0.29906284     1.4526161      0.021589214  
     11700   0.98343293     1.1757761     -0.2984513      1.4742274      0.021255922  
     11750   1.0187264      1.2313143     -0.29582022     1.5271345      0.022600171  
     11800   0.98398137     1.1796598     -0.29538975     1.4750496      0.020280981  
     11850   0.99673322     1.199182      -0.29498341     1.4941654      0.021005513  
     11900   1.023815       1.2297998     -0.30496286     1.5347626      0.021796335  
     11950   0.97897323     1.1601047     -0.30743733     1.4675421      0.020871741  
     12000   1.0422908      1.2689002     -0.29355885     1.5624591      0.025068375  
     12050   0.997924       1.1916648     -0.30428568     1.4959505      0.021385608  
     12100   0.98995618     1.1992528     -0.28475342     1.4840062      0.023744675  
     12150   1.0336851      1.2595131     -0.29004546     1.5495586      0.02257945   
     12200   0.96543313     1.1543345     -0.29291012     1.4472446      0.019558019  
     12250   1.0022265      1.2069142     -0.29548601     1.5024002      0.022426493  
     12300   0.99853101     1.1932261     -0.30363433     1.4968604      0.02078937   
     12350   1.0057656      1.2075375     -0.30016798     1.5077055      0.021032651  
     12400   0.9956668      1.18996       -0.30260671     1.4925668      0.022392426  
     12450   1.0047218      1.1980726     -0.3080682      1.5061408      0.021758789  
     12500   1.0012306      1.1883498     -0.31255751     1.5009073      0.020628733  
     12550   0.98228978     1.1589754     -0.31353842     1.4725138      0.020209308  
     12600   0.98879674     1.1788931     -0.30337505     1.4822681      0.020543666  
     12650   0.98267009     1.1686963     -0.30438761     1.4730839      0.021463277  
     12700   0.98512686     1.1773303     -0.29943638     1.4767667      0.022371937  
     12750   0.99712854     1.1961499     -0.29860813     1.494758       0.02257318   
     12800   1.0140136      1.217837      -0.3022327      1.5200697      0.020693917  
     12850   1.0158888      1.2230367     -0.29984416     1.5228808      0.022053687  
     12900   1.0091079      1.2074228     -0.30529304     1.5127158      0.021459813  
     12950   1.0076433      1.2077959     -0.30272436     1.5105203      0.020667796  
     13000   1.009647       1.2023877     -0.31113625     1.5135239      0.021276676  
     13050   1.0054288      1.1923602     -0.3148405      1.5072007      0.020642312  
     13100   0.99453883     1.1875463     -0.30332961     1.4908759      0.022034486  
     13150   1.0194041      1.2111028     -0.31704761     1.5281504      0.020919804  
     13200   0.99718744     1.1779617     -0.31688456     1.4948463      0.020437536  
     13250   0.98699009     1.1631227     -0.31643713     1.4795598      0.02164564   
     13300   0.9784168      1.1441095     -0.32259848     1.4667079      0.020774685  
     13350   1.0133085      1.1985912     -0.32042157     1.5190128      0.022215028  
     13400   0.99392585     1.1657584     -0.32419854     1.489957       0.021014226  
     13450   0.98295404     1.1520268     -0.32148277     1.4735095      0.020337427  
     13500   1.0223626      1.2121959     -0.32038951     1.5325854      0.02158273   
     13550   0.98554136     1.1569172     -0.32047086     1.4773881      0.020143952  
     13600   1.0303412      1.235853      -0.30869287     1.5445459      0.022720312  
     13650   1.0179139      1.2131206     -0.31279596     1.5259165      0.021408962  
     13700   1.0441371      1.254763      -0.31046386     1.5652268      0.022015608  
     13750   0.99885367     1.180355      -0.31698904     1.4973441      0.020611056  
     13800   0.9954745      1.1685749     -0.32370354     1.4922785      0.020410946  
     13850   0.98988665     1.1625164     -0.32138556     1.483902       0.02113646   
     13900   1.0352821      1.2246874     -0.32726515     1.5519526      0.021815988  
     13950   0.9927641      1.1593361     -0.32887937     1.4882154      0.021634178  
     14000   0.97595946     1.1380198     -0.32500443     1.4630242      0.020823969  
     14050   1.0110218      1.1897253     -0.32585967     1.5155849      0.022848959  
     14100   0.95217325     1.1089568     -0.31841036     1.4273672      0.020954038  
     14150   0.99016835     1.1710205     -0.31330375     1.4843242      0.021830777  
     14200   0.99350512     1.1750524     -0.31427382     1.4893263      0.021996031  
     14250   0.99101279     1.1827141     -0.30287604     1.4855901      0.022633508  
     14300   1.0021688      1.1916928     -0.31062086     1.5023136      0.021066556  
     14350   1.0178701      1.214918      -0.31093283     1.5258509      0.021819978  
     14400   0.97592435     1.1593231     -0.30364853     1.4629716      0.021649848  
     14450   0.99561623     1.1898005     -0.30269042     1.4924909      0.021202518  
     14500   0.99365069     1.192985      -0.29655946     1.4895445      0.021190362  
     14550   1.0151481      1.2201015     -0.30166903     1.5217705      0.020363166  
     14600   1.0318708      1.2415336     -0.30530527     1.5468388      0.022817804  
     14650   1.007712       1.215385      -0.29523831     1.5106233      0.022594689  
     14700   1.0288945      1.2449103     -0.29746684     1.5423771      0.022067587  
     14750   1.0303407      1.2538499     -0.29069524     1.5445451      0.022415063  
     14800   0.99957571     1.2009348     -0.29749161     1.4984265      0.020484197  
     14850   1.0131092      1.2210421     -0.29767186     1.518714       0.021567192  
     14900   1.0391506      1.2653397     -0.29241205     1.5577517      0.022492013  
     14950   1.0076631      1.224794      -0.285756       1.51055        0.021801695  
     15000   1.0235183      1.2464193     -0.28789858     1.5343179      0.021880854  
     15050   0.9983971      1.2103406     -0.28631908     1.4966597      0.020833523  
     15100   0.98841266     1.186605      -0.29508735     1.4816924      0.021062295  
     15150   0.98705832     1.1872677     -0.29239444     1.4796621      0.02146996   
     15200   1.0200561      1.240852      -0.28827595     1.5291279      0.02361783   
     15250   0.988588       1.1835911     -0.29836407     1.4819552      0.021103228  
     15300   0.99648481     1.1937349     -0.30005814     1.493793       0.020637332  
     15350   0.99028016     1.1766772     -0.3078146      1.4844918      0.019740856  
     15400   0.96996028     1.1563982     -0.29763286     1.4540311      0.022978942  
     15450   1.0446406      1.2642129     -0.30176859     1.5659815      0.023150099  
     15500   0.98690043     1.174093      -0.30533238     1.4794254      0.021604242  
     15550   0.97041226     1.1596692     -0.2950394      1.4547086      0.020896986  
     15600   1.0339963      1.2458928     -0.30413231     1.5500251      0.021936623  
     15650   0.98610463     1.1809479     -0.29728462     1.4782325      0.022104697  
     15700   0.97391277     1.1590372     -0.30091894     1.4599561      0.021543947  
     15750   0.98176319     1.1688822     -0.30284215     1.4717244      0.021119344  
     15800   1.0024945      1.1929102     -0.30989175     1.502802       0.02087206   
     15850   0.99816655     1.1919829     -0.30433113     1.496314       0.023343392  
     15900   1.0009416      1.1901933     -0.3102807      1.500474       0.021248902  
     15950   1.0028221      1.1930565     -0.31023654     1.503293       0.021487076  
     16000   1.0045152      1.1829883     -0.3228428      1.5058311      0.021313608  
Loop time of 2.60657 on 1 procs for 15000 steps with 1600 atoms

Performance: 2486029.702 tau/day, 5754.698 timesteps/s, 9.208 Matom-step/s
98.9% CPU use with 1 MPI tasks x 1 OpenMP threads

MPI task timing breakdown:
Section |  min time  |  avg time  |  max time  |%varavg| %total
---------------------------------------------------------------
Pair    | 0.64168    | 0.64168    | 0.64168    |   0.0 | 24.62
Neigh   | 0.79915    | 0.79915    | 0.79915    |   0.0 | 30.66
Comm    | 0.099001   | 0.099001   | 0.099001   |   0.0 |  3.80
Output  | 0.14293    | 0.14293    | 0.14293    |   0.0 |  5.48
Modify  | 0.87317    | 0.87317    | 0.87317    |   0.0 | 33.50
Other   |            | 0.05064    |            |       |  1.94

Nlocal:           1600 ave        1600 max        1600 min
Histogram: 1 0 0 0 0 0 0 0 0 0
Nghost:           1227 ave        1227 max        1227 min
Histogram: 1 0 0 0 0 0 0 0 0 0
Neighs:           7279 ave        7279 max        7279 min
Histogram: 1 0 0 0 0 0 0 0 0 0

Total # of neighbors = 7279
Ave neighs/atom = 4.549375
Neighbor list builds = 1867
Dangerous builds = 0





Total wall time: 0:00:05
