LAMMPS (22 Jul 2025 - Update 2)
OMP_NUM_THREADS environment is not set. Defaulting to 1 thread.
  using 1 OpenMP thread(s) per MPI task
clear
OMP_NUM_THREADS environment is not set. Defaulting to 1 thread.
  using 1 OpenMP thread(s) per MPI task
units lj
dimension 3
atom_style atomic
boundary p p p
region simbox block -20.0 20.0 -20.0 20.0 -20.0 20.0
create_box 2 simbox
Created orthogonal box = (-20 -20 -20) to (20 20 20)
  1 by 1 by 1 MPI processor grid
create_atoms 1 random 1500 34134 simbox overlap 0.3
Created 1500 atoms
  using lattice units in orthogonal box = (-20 -20 -20) to (20 20 20)
  create_atoms CPU = 0.042 seconds
create_atoms 2 random 100 12756 simbox overlap 0.3
Created 100 atoms
  using lattice units in orthogonal box = (-20 -20 -20) to (20 20 20)
  create_atoms CPU = 0.006 seconds
mass 1 1.0
mass 2 5.0
pair_style lj/cut 4.0
pair_coeff 1 1 1.0 1.0
pair_coeff 2 2 0.5 3.0
neighbor 0.3 bin
neigh_modify every 1 delay 0 check yes
thermo_modify flush yes
compute mytemp all temp
compute mypress all pressure mytemp
thermo 10
thermo_style custom step etotal press pe
WARNING: New thermo_style command, previous thermo_modify settings will be lost (C:\Users\runneradmin\AppData\Local\Temp\tmp675km_ty\build\_deps\lammps-src\src\output.cpp:912)
minimize 1e-06 1e-06 1000 10000
Generated 1 of 1 mixed pair_coeff terms from geometric mixing rule
Neighbor list info ...
  update: every = 1 steps, delay = 0 steps, check = yes
  max neighbors/atom: 2000, page size: 100000
  master list distance cutoff = 4.3
  ghost atom cutoff = 4.3
  binsize = 2.15, bins = 19 19 19
  1 neighbor lists, perpetual/occasional/extra = 1 0 0
  (1) pair lj/cut, perpetual
      attributes: half, newton on
      pair build: half/bin/atomonly/newton
      stencil: half/bin/3d
      bin: standard
Per MPI rank memory allocation (min/avg/max) = 4.279 | 4.279 | 4.279 Mbytes
   Step         TotEng         Press          PotEng    
         0   951929.29      95195.517      951929.29    
        10   3.5701279      0.41939855     3.5701279    
        20  -0.29919041    -0.0039060286  -0.29919041   
        30  -0.3941731     -0.0037206356  -0.3941731    
        40  -0.46170501    -0.0035160833  -0.46170501   
        50  -0.51118404    -0.0030873905  -0.51118404   
        60  -0.55364542    -0.0023932664  -0.55364542   
        70  -0.60105929    -0.0028490977  -0.60105929   
        80  -0.63908384    -0.0024805522  -0.63908384   
        90  -0.6799505     -0.0024682149  -0.6799505    
       100  -0.71603181    -0.0024785996  -0.71603181   
       110  -0.74686329    -0.0020756756  -0.74686329   
       120  -0.78427168    -0.0022599663  -0.78427168   
       130  -0.81793383    -0.0021402168  -0.81793383   
       140  -0.85272023    -0.0019398829  -0.85272023   
       150  -0.88467529    -0.0018319299  -0.88467529   
       160  -0.91905133    -0.0019237296  -0.91905133   
       170  -0.94055567    -0.0018633498  -0.94055567   
       180  -0.96826868    -0.0016577128  -0.96826868   
       190  -0.99526689    -0.0018052075  -0.99526689   
       200  -1.0235205     -0.0018914647  -1.0235205    
       210  -1.0546118     -0.0019956944  -1.0546118    
       220  -1.0885857     -0.0015798317  -1.0885857    
       230  -1.1127997     -0.0014570461  -1.1127997    
       240  -1.1389554     -0.0015397531  -1.1389554    
       250  -1.1691372     -0.0014131235  -1.1691372    
       260  -1.1943089     -0.0014029966  -1.1943089    
       270  -1.2196439     -0.0014691719  -1.2196439    
       280  -1.2428259     -0.0012700722  -1.2428259    
       290  -1.261349      -0.00097831204 -1.261349     
       300  -1.2786271     -0.0012390444  -1.2786271    
       310  -1.2957215     -0.00095558446 -1.2957215    
       320  -1.3085707     -0.0010073447  -1.3085707    
       330  -1.3231793     -0.0010783556  -1.3231793    
       340  -1.3419587     -0.0011236128  -1.3419587    
       350  -1.3630459     -0.0010872142  -1.3630459    
       360  -1.3784139     -0.001310331   -1.3784139    
       370  -1.3919535     -0.0011581315  -1.3919535    
       380  -1.4040548     -0.0012816065  -1.4040548    
       390  -1.4200339     -0.00093064404 -1.4200339    
       400  -1.4392621     -0.0010210565  -1.4392621    
       410  -1.4525124     -0.00083841793 -1.4525124    
       420  -1.4683039     -0.0009632739  -1.4683039    
       430  -1.4810466     -0.0010544462  -1.4810466    
       440  -1.4938492     -0.0010351559  -1.4938492    
       450  -1.506964      -0.0011656848  -1.506964     
       460  -1.5191082     -0.00099604123 -1.5191082    
       470  -1.5323546     -0.00092616845 -1.5323546    
       480  -1.5411332     -0.00086393935 -1.5411332    
       490  -1.5479842     -0.0010280814  -1.5479842    
       500  -1.5596297     -0.00092563049 -1.5596297    
       510  -1.5704931     -0.00078379484 -1.5704931    
       520  -1.5781983     -0.00072326013 -1.5781983    
       530  -1.586424      -0.00070277726 -1.586424     
       540  -1.592696      -0.00073184755 -1.592696     
       550  -1.6011967     -0.00098941707 -1.6011967    
       560  -1.6092187     -0.00075771436 -1.6092187    
       570  -1.6168917     -0.00066165124 -1.6168917    
       580  -1.6347843     -0.00073345472 -1.6347843    
       590  -1.6464403     -0.00074796534 -1.6464403    
       600  -1.6568153     -0.00077675993 -1.6568153    
       610  -1.6729961     -0.00064216616 -1.6729961    
       620  -1.6852424     -0.00082669251 -1.6852424    
       630  -1.694955      -0.00057811623 -1.694955     
       640  -1.7030552     -0.00063648886 -1.7030552    
       650  -1.7139375     -0.00068914813 -1.7139375    
       660  -1.7240308     -0.00082018965 -1.7240308    
       670  -1.7352678     -0.00065694935 -1.7352678    
       680  -1.742982      -0.00077780016 -1.742982     
       690  -1.7507699     -0.0006135736  -1.7507699    
       700  -1.7560748     -0.00056357019 -1.7560748    
       710  -1.762649      -0.00064225072 -1.762649     
       720  -1.7701211     -0.00068353118 -1.7701211    
       730  -1.7819023     -0.00065891404 -1.7819023    
       740  -1.7909312     -0.00066134893 -1.7909312    
       750  -1.800383      -0.00064500071 -1.800383     
       760  -1.810547      -0.00066839245 -1.810547     
       770  -1.8223486     -0.00059408908 -1.8223486    
       780  -1.8305968     -0.00056272978 -1.8305968    
       790  -1.8375663     -0.00045749042 -1.8375663    
       800  -1.8461707     -0.00043939564 -1.8461707    
       810  -1.8527712     -0.00048774701 -1.8527712    
       820  -1.8602482     -0.00045319334 -1.8602482    
       830  -1.8671712     -0.00038424282 -1.8671712    
       840  -1.8730859     -0.00041667702 -1.8730859    
       850  -1.8788771     -0.00047340001 -1.8788771    
       860  -1.8854009     -0.00044729364 -1.8854009    
       870  -1.8904802     -0.00029317357 -1.8904802    
       880  -1.8963861     -0.00044920562 -1.8963861    
       890  -1.9049259     -0.00031627471 -1.9049259    
       900  -1.9101198     -0.00043984915 -1.9101198    
       910  -1.9169156     -0.00052384394 -1.9169156    
       920  -1.9236513     -0.00042851136 -1.9236513    
       930  -1.9284375     -0.00043853081 -1.9284375    
       940  -1.933747      -0.00048591008 -1.933747     
       950  -1.9384656     -0.00045539597 -1.9384656    
       960  -1.9425092     -0.00064204948 -1.9425092    
       970  -1.9506596     -0.00053936827 -1.9506596    
       980  -1.9574315     -0.00062409015 -1.9574315    
       990  -1.966573      -0.0005211393  -1.966573     
      1000  -1.9749736     -0.0004684835  -1.9749736    
Loop time of 0.350303 on 1 procs for 1000 steps with 1600 atoms

98.1% CPU use with 1 MPI tasks x 1 OpenMP threads

Minimization stats:
  Stopping criterion = max iterations
  Energy initial, next-to-last, final = 
      951929.289785733   -1.9744204982741  -1.97497359019848
  Force two-norm initial, final = 7.9345356e+10 12.501082
  Force max component initial, final = 5.4329265e+10 3.4530453
  Final line search alpha, max atom move = 0.017879424 0.06173846
  Iterations, force evaluations = 1000 1969

MPI task timing breakdown:
Section |  min time  |  avg time  |  max time  |%varavg| %total
---------------------------------------------------------------
Pair    | 0.14514    | 0.14514    | 0.14514    |   0.0 | 41.43
Neigh   | 0.13229    | 0.13229    | 0.13229    |   0.0 | 37.77
Comm    | 0.015524   | 0.015524   | 0.015524   |   0.0 |  4.43
Output  | 0.0010747  | 0.0010747  | 0.0010747  |   0.0 |  0.31
Modify  | 0          | 0          | 0          |   0.0 |  0.00
Other   |            | 0.05627    |            |       | 16.06

Nlocal:           1600 ave        1600 max        1600 min
Histogram: 1 0 0 0 0 0 0 0 0 0
Nghost:           1246 ave        1246 max        1246 min
Histogram: 1 0 0 0 0 0 0 0 0 0
Neighs:           7877 ave        7877 max        7877 min
Histogram: 1 0 0 0 0 0 0 0 0 0

Total # of neighbors = 7877
Ave neighs/atom = 4.923125
Neighbor list builds = 358
Dangerous builds = 0
write_data C:/Users/paulg/Dokumente/GitHub/Iodine_Helium_Simulation/Drag_function/molecular_dynamics/examples_and_testing/lj_python_api_run/after_min.data
System init for write_data ...
Generated 1 of 1 mixed pair_coeff terms from geometric mixing rule
thermo 50
thermo_style custom step temp etotal pe ke press
fix fthermo all print 1 "${step} ${temp} ${pe} ${ke} ${etotal} ${press}" file C:/Users/paulg/Dokumente/GitHub/Iodine_Helium_Simulation/Drag_function/molecular_dynamics/examples_and_testing/lj_python_api_run/thermo_nve.dat screen no title "step temp pe ke etotal press"
reset_timestep 0
fix mynve all nve
dump mydmp all atom 100 C:/Users/paulg/Dokumente/GitHub/Iodine_Helium_Simulation/Drag_function/molecular_dynamics/examples_and_testing/lj_python_api_run/dump_nve.lammpstrj
timestep 0.005
run 50000
Generated 1 of 1 mixed pair_coeff terms from geometric mixing rule
ERROR on proc 0: Substitution for illegal variable step
For more information see https://docs.lammps.org/err0013 (C:\Users\runneradmin\AppData\Local\Temp\tmp675km_ty\build\_deps\lammps-src\src\input.cpp:665)
Total wall time: 0:00:00
