LAMMPS (22 Jul 2025 - Update 2)
OMP_NUM_THREADS environment is not set. Defaulting to 1 thread.
  using 1 OpenMP thread(s) per MPI task

# 1) Initialization
units lj
dimension 3
atom_style atomic
boundary p p p
# 2) System definition --> read data to continue simulation
pair_style lj/cut 4.0
read_data improved.min.data
Reading data file ...
  orthogonal box = (-20 -20 -20) to (20 20 20)
  1 by 1 by 1 MPI processor grid
  reading atoms ...
  1150 atoms
  reading velocities ...
  1150 velocities
  read_data CPU = 0.007 seconds
region cyl_in cylinder z 0 0 10 INF INF side in
region cyl_out cylinder z 0 0 10 INF INF side out
group grp_t1 type 1
1000 atoms in group grp_t1
group grp_t2 type 2
150 atoms in group grp_t2
group grp_in region cyl_in
190 atoms in group grp_in
group grp_out region cyl_out
960 atoms in group grp_out
group grp_t1_in intersect grp_t1 grp_in
85 atoms in group grp_t1_in
group grp_t2_out intersect grp_t2 grp_out
45 atoms in group grp_t2_out
delete_atoms group grp_t1_in
Deleted 85 atoms, new total = 1065
delete_atoms group grp_t2_out
Deleted 45 atoms, new total = 1020
# delete no longer needed groups
group grp_in delete
group grp_out delete
group grp_t1_in delete
group grp_t2_out delete
variable n1_in equal count(grp_t1,cyl_in)
variable n2_in equal count(grp_t2,cyl_in)
compute coor12 grp_t1 coord/atom cutoff 2 group grp_t2
compute sumcoor12 grp_t1 reduce ave c_coor12

# 3) Settings - No need taken from .data file 

# 4) Monitoring
thermo 1000
thermo_style custom step temp pe ke etotal press v_n1_in v_n2_in c_sumcoor12
dump viz all image 100000 lj_fluid_restart-*.ppm type type shiny 0.1 box no 0.01 view 0 0 zoom 1.8 fsaa yes size 800 800
dump_modify viz adiam 1 1 adiam 2 3 acolor 1 turquoise acolor 2 royalblue backcolor white
# 5) Run
velocity all create 1.0 49284 mom yes dist gaussian
fix mynve all nve
fix mylgv all langevin 1.0 1.0 0.1 10917 zero yes
timestep 0.005
run 300000
Generated 1 of 1 mixed pair_coeff terms from geometric mixing rule
Neighbor list info ...
  update: every = 1 steps, delay = 0 steps, check = yes
  max neighbors/atom: 2000, page size: 100000
  master list distance cutoff = 4.3
  ghost atom cutoff = 4.3
  binsize = 2.15, bins = 19 19 19
  2 neighbor lists, perpetual/occasional/extra = 1 1 0
  (1) pair lj/cut, perpetual
      attributes: half, newton on
      pair build: half/bin/atomonly/newton
      stencil: half/bin/3d
      bin: standard
  (2) compute coord/atom, occasional
      attributes: full, newton on
      pair build: full/bin/atomonly
      stencil: full/bin/3d
      bin: standard
Per MPI rank memory allocation (min/avg/max) = 3.767 | 3.767 | 3.767 Mbytes
   Step          Temp          PotEng         KinEng         TotEng         Press         v_n1_in        v_n2_in      c_sumcoor12  
         0   1             -0.18158852     1.4985294      1.3169409      0.015394666    0              105            0.0021857923 
      1000   0.98338942    -0.19962156     1.473638       1.2740164      0.014928005    10             102            0.0032786885 
      2000   0.99883099    -0.20704506     1.4967776      1.2897326      0.015754498    29             102            0.0043715847 
      3000   1.0176003     -0.18998156     1.524904       1.3349224      0.015367334    24             97             0.0032786885 
      4000   0.98619117    -0.19902332     1.4778365      1.2788131      0.014256118    30             97             0.0054644809 
      5000   0.95980746    -0.19131119     1.4382997      1.2469885      0.014992406    27             97             0.0076502732 
      6000   1.014236      -0.18415421     1.5198625      1.3357083      0.015358625    39             96             0.0098360656 
      7000   1.0461274     -0.17805132     1.5676527      1.3896014      0.015545094    41             96             0.0098360656 
      8000   0.98297448    -0.17340157     1.4730162      1.2996146      0.015368046    49             93             0.013114754  
      9000   1.0040229     -0.1944151      1.5045579      1.3101428      0.015044059    51             93             0.0043715847 
     10000   0.97129584    -0.20147744     1.4555154      1.2540379      0.014309282    52             93             0.017486339  
     11000   1.0248743     -0.21170758     1.5358043      1.3240967      0.014885652    59             96             0.018579235  
     12000   1.0079297     -0.20736944     1.5104123      1.3030429      0.015991475    55             94             0.013114754  
     13000   1.0007687     -0.19015886     1.4996813      1.3095225      0.0152577      55             92             0.016393443  
     14000   1.0236112     -0.18337654     1.5339114      1.3505349      0.017312781    57             93             0.018579235  
     15000   0.97570666    -0.18994467     1.4621251      1.2721805      0.013911203    66             91             0.0098360656 
     16000   0.99743732    -0.19274679     1.4946892      1.3019424      0.015427739    70             92             0.015300546  
     17000   1.0014808     -0.18318561     1.5007484      1.3175628      0.014583688    71             89             0.013114754  
     18000   0.96685488    -0.18097513     1.4488605      1.2678854      0.015617972    70             92             0.016393443  
     19000   1.0492816     -0.18421723     1.5723793      1.3881621      0.015592003    75             91             0.013114754  
     20000   0.96213203    -0.18249108     1.4417832      1.2592921      0.014854727    72             91             0.01420765   
     21000   1.0410669     -0.18677867     1.5600694      1.3732907      0.016398063    78             88             0.020765027  
     22000   0.97006147    -0.19172843     1.4536656      1.2619372      0.01538406     80             89             0.010928962  
     23000   0.98102335    -0.19642006     1.4700923      1.2736723      0.014067509    80             87             0.012021858  
     24000   0.99246149    -0.18355318     1.4872327      1.3036795      0.016331502    86             86             0.018579235  
     25000   0.98809663    -0.19520273     1.4806919      1.2854891      0.015563967    84             85             0.021857923  
     26000   1.00245       -0.18988452     1.5022009      1.3123163      0.015883681    85             85             0.019672131  
     27000   0.99228944    -0.16798477     1.4869749      1.3189901      0.01480246     82             86             0.006557377  
     28000   0.97744043    -0.18198652     1.4647232      1.2827367      0.015189452    81             83             0.010928962  
     29000   0.96519645    -0.17769151     1.4463753      1.2686838      0.014606341    79             86             0.016393443  
     30000   1.0295898     -0.19189549     1.5428706      1.3509751      0.015288217    83             85             0.018579235  
     31000   1.031339      -0.19331339     1.5454918      1.3521784      0.016058325    86             85             0.021857923  
     32000   0.99641988    -0.20482621     1.4931645      1.2883383      0.016037228    87             87             0.025136612  
     33000   1.0212618     -0.188512       1.5303908      1.3418788      0.015146445    94             86             0.016393443  
     34000   0.96362651    -0.20326981     1.4440227      1.2407529      0.014050638    88             85             0.015300546  
     35000   0.99383043    -0.18935163     1.4892841      1.2999325      0.015226546    85             86             0.024043716  
     36000   1.0155443     -0.2021121      1.521823       1.3197109      0.01519566     85             86             0.018579235  
     37000   0.96588699    -0.20101168     1.4474101      1.2463984      0.014210144    87             87             0.013114754  
     38000   1.0160121     -0.20366214     1.522524       1.3188619      0.015239783    85             87             0.017486339  
     39000   1.0036773     -0.19260428     1.50404        1.3114357      0.016913739    92             85             0.015300546  
     40000   0.99326816    -0.20889078     1.4884415      1.2795508      0.014498469    98             86             0.02295082   
     41000   1.0005405     -0.18625832     1.4993394      1.3130811      0.015315283    99             87             0.029508197  
     42000   1.028324      -0.19948791     1.5409737      1.3414858      0.014698453    102            86             0.026229508  
     43000   0.9457271     -0.17375741     1.4171999      1.2434425      0.014110411    102            86             0.020765027  
     44000   1.0464803     -0.18734333     1.5681815      1.3808382      0.015999883    103            87             0.02295082   
     45000   1.0050041     -0.19515388     1.5060282      1.3108744      0.015279219    100            85             0.02295082   
     46000   0.98448214    -0.21084674     1.4752754      1.2644287      0.014187375    97             86             0.024043716  
     47000   0.99462648    -0.20233245     1.490477       1.2881446      0.014910559    107            86             0.029508197  
     48000   0.99321691    -0.19671658     1.4883648      1.2916482      0.015428642    112            86             0.02295082   
     49000   1.0301763     -0.19726901     1.5437494      1.3464804      0.015108667    114            85             0.027322404  
     50000   1.0150605     -0.19161733     1.521098       1.3294807      0.015486747    113            85             0.018579235  
     51000   0.95926753    -0.18195133     1.4374906      1.2555393      0.014681057    112            85             0.019672131  
     52000   0.96522299    -0.20257617     1.446415       1.2438389      0.013842493    110            83             0.026229508  
     53000   1.0440779     -0.19162418     1.5645814      1.3729572      0.015442323    120            82             0.026229508  
     54000   1.0257687     -0.21308239     1.5371446      1.3240622      0.01495271     118            81             0.036065574  
     55000   1.0089353     -0.1934578      1.5119192      1.3184614      0.015337146    123            82             0.026229508  
     56000   1.0125495     -0.20258671     1.5173352      1.3147485      0.014822721    113            82             0.027322404  
     57000   0.97974809    -0.20053789     1.4681813      1.2676434      0.014484741    112            83             0.021857923  
     58000   0.99930382    -0.21055229     1.4974862      1.2869339      0.014270595    111            81             0.027322404  
     59000   0.97513186    -0.19614365     1.4612638      1.2651201      0.013909464    114            81             0.029508197  
     60000   0.98166239    -0.19256307     1.47105        1.2784869      0.014667546    117            82             0.032786885  
     61000   1.0215414     -0.20763379     1.5308099      1.3231761      0.014958681    122            82             0.030601093  
     62000   1.0273019     -0.19787442     1.5394421      1.3415677      0.016450785    120            80             0.028415301  
     63000   0.97524668    -0.19600482     1.4614358      1.265431       0.01439231     122            79             0.034972678  
     64000   1.0059978     -0.19742336     1.5075173      1.310094       0.01477658     127            78             0.024043716  
     65000   0.99948419    -0.18470813     1.4977565      1.3130483      0.015519482    123            78             0.032786885  
     66000   0.97320772    -0.19291244     1.4583804      1.2654679      0.015067523    132            77             0.026229508  
     67000   1.0011017     -0.19907006     1.5001804      1.3011103      0.014587123    125            77             0.032786885  
     68000   1.0682336     -0.21124975     1.6007794      1.3895297      0.015073216    129            78             0.027322404  
     69000   1.042178      -0.21791807     1.5617343      1.3438162      0.014961017    116            74             0.031693989  
     70000   1.0198677     -0.21121584     1.5283018      1.3170859      0.014370559    112            76             0.031693989  
     71000   1.0098188     -0.20284151     1.5132432      1.3104017      0.014727797    118            77             0.031693989  
     72000   0.98452985    -0.19194809     1.4753469      1.2833988      0.014186047    116            77             0.025136612  
     73000   0.961524      -0.18541772     1.440872       1.2554543      0.014946511    117            77             0.029508197  
     74000   1.0148549     -0.20352496     1.5207899      1.317265       0.015249971    114            78             0.024043716  
     75000   0.98036953    -0.1926259      1.4691126      1.2764867      0.014817386    122            78             0.031693989  
     76000   1.0095659     -0.18774723     1.5128642      1.325117       0.014109857    126            78             0.025136612  
     77000   0.98558334    -0.20162182     1.4769256      1.2753038      0.01429523     125            76             0.021857923  
     78000   1.0460833     -0.19407173     1.5675866      1.3735149      0.015549375    129            74             0.034972678  
     79000   0.97725216    -0.19661931     1.4644411      1.2678218      0.015184602    128            71             0.029508197  
     80000   1.0264505     -0.19703209     1.5381663      1.3411342      0.014907028    127            70             0.019672131  
     81000   1.0324188     -0.17619839     1.5471099      1.3709115      0.015681723    131            70             0.030601093  
     82000   1.0084073     -0.19652899     1.5111279      1.314599       0.014494683    140            69             0.031693989  
     83000   1.0431242     -0.18764529     1.5631523      1.375507       0.015020092    130            69             0.027322404  
     84000   0.99086455    -0.19024553     1.4848397      1.2945941      0.015023367    126            68             0.031693989  
     85000   1.0029633     -0.18500969     1.50297        1.3179603      0.015025022    135            68             0.033879781  
     86000   0.97427462    -0.20464806     1.4599792      1.2553311      0.013704697    136            70             0.027322404  
     87000   1.0668156     -0.1851292      1.5986546      1.4135254      0.015097516    140            69             0.031693989  
     88000   0.99137571    -0.20191623     1.4856057      1.2836894      0.014089153    140            70             0.031693989  
     89000   0.98739196    -0.19692986     1.4796359      1.282706       0.014038601    141            71             0.031693989  
     90000   0.99794395    -0.18858858     1.4954484      1.3068598      0.014552647    143            69             0.033879781  
     91000   1.0421705     -0.20960001     1.5617231      1.3521231      0.014699286    142            70             0.025136612  
     92000   1.0375193     -0.20340887     1.5547532      1.3513443      0.015137312    146            70             0.028415301  
     93000   0.9641133     -0.20741911     1.4447521      1.237333       0.013127164    140            70             0.034972678  
     94000   0.94498846    -0.20638476     1.416093       1.2097082      0.013650589    143            67             0.033879781  
     95000   1.0342181     -0.21085669     1.5498063      1.3389496      0.01557172     141            66             0.046994536  
     96000   0.96929722    -0.20947604     1.4525204      1.2430443      0.015067969    145            68             0.042622951  
     97000   1.0120535     -0.19441519     1.516592       1.3221768      0.015647587    144            68             0.030601093  
     98000   0.98185244    -0.20534115     1.4713348      1.2659936      0.014455397    142            69             0.03715847   
     99000   0.96937938    -0.19822157     1.4526435      1.2544219      0.014660931    143            67             0.038251366  
    100000   1.0699932     -0.19198133     1.6034163      1.4114349      0.016880933    142            67             0.03715847   
    101000   1.0140101     -0.1988462      1.5195239      1.3206777      0.014862841    142            65             0.048087432  
    102000   0.97439537    -0.17472342     1.4601601      1.2854367      0.014673413    143            65             0.032786885  
    103000   0.9983533     -0.17171565     1.4960618      1.3243461      0.015078259    148            67             0.027322404  
    104000   1.002203      -0.190343       1.5018306      1.3114876      0.015190595    145            69             0.032786885  
    105000   1.0025614     -0.20015624     1.5023678      1.3022116      0.014663625    145            69             0.040437158  
    106000   1.0246304     -0.20477151     1.5354387      1.3306672      0.016399471    151            68             0.039344262  
    107000   1.0363373     -0.1956267      1.5529819      1.3573552      0.015854182    150            66             0.026229508  
    108000   0.98931788    -0.19158524     1.4825219      1.2909367      0.015652974    144            66             0.036065574  
    109000   1.0266166     -0.18032964     1.5384152      1.3580855      0.015618012    148            66             0.027322404  
    110000   1.008067      -0.18682155     1.510618       1.3237965      0.015580944    150            65             0.039344262  
    111000   0.98255922    -0.18756457     1.4723939      1.2848293      0.01508065     154            66             0.038251366  
    112000   1.0140068     -0.1911982      1.519519       1.3283209      0.015169045    150            67             0.028415301  
    113000   0.97482013    -0.19879734     1.4607966      1.2619993      0.01463874     159            61             0.039344262  
    114000   1.0418116     -0.18060158     1.5611853      1.3805837      0.015590024    159            61             0.027322404  
    115000   0.96265532    -0.19908163     1.4425673      1.2434857      0.014837273    163            62             0.034972678  
    116000   1.037166      -0.21470008     1.5542237      1.3395236      0.015950697    156            62             0.038251366  
    117000   1.0005334     -0.20109271     1.4993287      1.298236       0.015919619    156            63             0.032786885  
    118000   0.96380753    -0.20821206     1.4442939      1.2360819      0.013310021    163            61             0.030601093  
    119000   1.0067756     -0.20369648     1.5086828      1.3049863      0.014610893    151            62             0.029508197  
    120000   0.98955515    -0.18949945     1.4828775      1.293378       0.014179306    153            64             0.030601093  
    121000   0.97892282    -0.20073903     1.4669446      1.2662056      0.014126135    150            65             0.036065574  
    122000   0.97271079    -0.1769398      1.4576357      1.2806959      0.015034568    154            64             0.036065574  
    123000   1.0222555     -0.17286061     1.5318799      1.3590193      0.015771552    151            63             0.034972678  
    124000   0.97446595    -0.19215428     1.4602659      1.2681116      0.014444257    157            62             0.02295082   
    125000   1.0014067     -0.19277419     1.5006373      1.3078631      0.014834452    162            61             0.027322404  
    126000   1.0116123     -0.18898009     1.5159308      1.3269508      0.015127287    156            61             0.028415301  
    127000   0.96145016    -0.19644623     1.4407613      1.2443151      0.014137043    153            60             0.025136612  
    128000   1.0072688     -0.19111333     1.509422       1.3183087      0.014844741    153            60             0.034972678  
    129000   1.0052183     -0.201007       1.5063492      1.3053422      0.015336807    152            60             0.031693989  
    130000   1.0138936     -0.18701355     1.5193494      1.3323358      0.015635155    153            60             0.036065574  
    131000   1.0012285     -0.18779006     1.5003703      1.3125802      0.015432396    151            59             0.045901639  
    132000   1.0249225     -0.20484313     1.5358765      1.3310334      0.014909144    157            60             0.032786885  
    133000   0.97399875    -0.19870764     1.4595658      1.2608581      0.013758857    161            60             0.034972678  
    134000   1.0072729     -0.19494329     1.5094281      1.3144848      0.015347491    155            57             0.043715847  
    135000   1.0062143     -0.21239719     1.5078417      1.2954445      0.014880515    158            59             0.041530055  
    136000   0.96604       -0.22619945     1.4476394      1.2214399      0.01394425     162            58             0.046994536  
    137000   1.030194      -0.19511838     1.5437759      1.3486576      0.015475553    162            58             0.029508197  
    138000   0.9805579     -0.2003526      1.4693949      1.2690423      0.014092398    167            58             0.031693989  
    139000   0.98523688    -0.20416274     1.4764064      1.2722437      0.014878291    165            59             0.045901639  
    140000   0.98689142    -0.20941823     1.4788858      1.2694676      0.014635757    171            58             0.03715847   
    141000   0.98712378    -0.20882715     1.479234       1.2704069      0.014483528    164            62             0.032786885  
    142000   0.99777669    -0.19572099     1.4951977      1.2994767      0.01584491     172            60             0.044808743  
    143000   0.97824301    -0.1948813      1.4659259      1.2710446      0.014445136    165            59             0.042622951  
    144000   0.99650439    -0.1979375      1.4932911      1.2953536      0.014961546    162            59             0.029508197  
    145000   0.99568736    -0.19410528     1.4920668      1.2979615      0.015023595    160            59             0.03715847   
    146000   0.96447755    -0.19240105     1.445298       1.2528969      0.015561763    168            60             0.042622951  
    147000   0.99041412    -0.20064376     1.4841647      1.2835209      0.014734521    172            61             0.028415301  
    148000   1.0235255     -0.21094509     1.5337831      1.322838       0.014360498    171            59             0.028415301  
    149000   1.0281347     -0.2094618      1.5406901      1.3312283      0.014875654    164            57             0.034972678  
    150000   0.97168581    -0.20493961     1.4560998      1.2511602      0.014376094    169            58             0.029508197  
    151000   1.0311309     -0.20314936     1.54518        1.3420307      0.015168916    167            60             0.030601093  
    152000   0.96785357    -0.21995228     1.450357       1.2304048      0.013745291    166            61             0.027322404  
    153000   0.96350437    -0.22656807     1.4438396      1.2172716      0.013143533    161            59             0.034972678  
    154000   0.99034942    -0.20078761     1.4840677      1.2832801      0.015295764    153            60             0.033879781  
    155000   1.023489      -0.20355826     1.5337284      1.3301701      0.015400519    162            58             0.036065574  
    156000   0.98079159    -0.19693702     1.469745       1.272808       0.014393569    167            59             0.033879781  
    157000   1.0119509     -0.21477083     1.5164382      1.3016673      0.014117351    174            61             0.043715847  
    158000   1.0562105     -0.1981946      1.5827625      1.3845679      0.015404075    163            60             0.039344262  
    159000   0.98660565    -0.20230033     1.4784576      1.2761573      0.014945515    158            59             0.03715847   
    160000   0.99943895    -0.21648577     1.4976887      1.2812029      0.014836422    165            60             0.040437158  
    161000   1.0004336     -0.19887682     1.4991792      1.3003024      0.015201797    166            61             0.034972678  
    162000   1.0192892     -0.21447352     1.5274349      1.3129614      0.015042372    169            61             0.048087432  
    163000   1.0209519     -0.2014025      1.5299265      1.328524       0.015556402    173            60             0.043715847  
    164000   0.98224238    -0.20871973     1.4719191      1.2631994      0.013584845    167            61             0.036065574  
    165000   1.0211948     -0.20534825     1.5302904      1.3249422      0.01485038     168            59             0.041530055  
    166000   0.98946466    -0.23326817     1.4827419      1.2494737      0.014424075    175            60             0.03715847   
    167000   0.97700682    -0.20098605     1.4640735      1.2630874      0.015163813    165            58             0.036065574  
    168000   0.98209894    -0.20520258     1.4717042      1.2665016      0.014533215    165            61             0.040437158  
    169000   0.95899985    -0.21087996     1.4370895      1.2262095      0.01320506     169            58             0.031693989  
    170000   1.0093731     -0.19462872     1.5125753      1.3179465      0.015234004    166            61             0.03715847   
    171000   1.0235321     -0.20240598     1.5337929      1.331387       0.014796525    174            62             0.033879781  
    172000   0.96630318    -0.18748746     1.4480337      1.2605463      0.014043209    171            64             0.032786885  
    173000   0.99804536    -0.18705158     1.4956003      1.3085487      0.014461603    172            63             0.032786885  
    174000   0.9586058     -0.18963071     1.436499       1.2468683      0.013135121    178            63             0.027322404  
    175000   0.98725811    -0.18542473     1.4794353      1.2940106      0.014420511    181            61             0.038251366  
    176000   1.003413      -0.19397225     1.503644       1.3096717      0.015415602    185            62             0.03715847   
    177000   0.99896467    -0.1916666      1.4969779      1.3053113      0.014020327    185            61             0.036065574  
    178000   1.0011629     -0.21216193     1.5002721      1.2881102      0.014052504    178            61             0.039344262  
    179000   0.9856145     -0.20507861     1.4769723      1.2718937      0.01399669     181            57             0.033879781  
    180000   0.98415219    -0.20270732     1.474781       1.2720737      0.014798886    184            58             0.048087432  
    181000   0.97890816    -0.2092001      1.4669227      1.2577226      0.014522899    190            56             0.044808743  
    182000   1.0098654     -0.1993704      1.5133129      1.3139425      0.014508117    188            60             0.039344262  
    183000   1.030456      -0.21479512     1.5441686      1.3293735      0.014249745    182            58             0.042622951  
    184000   0.96364431    -0.19918992     1.4440493      1.2448594      0.014360093    177            61             0.044808743  
    185000   0.95926065    -0.21749189     1.4374803      1.2199884      0.013194712    174            59             0.040437158  
    186000   1.0188726     -0.22244631     1.5268106      1.3043643      0.016073223    178            58             0.049180328  
    187000   0.99120021    -0.22570598     1.4853427      1.2596367      0.014878392    172            57             0.038251366  
    188000   1.045608      -0.2186133      1.5668743      1.348261       0.015209981    175            58             0.03715847   
    189000   1.0180185     -0.20059481     1.5255306      1.3249358      0.015569495    173            60             0.048087432  
    190000   0.99642273    -0.21334459     1.4931688      1.2798242      0.015328309    173            59             0.036065574  
    191000   1.0718536     -0.21306956     1.6062041      1.3931346      0.015370854    172            56             0.043715847  
    192000   1.0225189     -0.22016132     1.5322747      1.3121134      0.01504568     170            54             0.042622951  
    193000   1.012613      -0.1982758      1.5174304      1.3191546      0.015050232    178            53             0.034972678  
    194000   1.0184648     -0.20572561     1.5261994      1.3204738      0.015472223    178            53             0.042622951  
    195000   0.98447322    -0.20247875     1.4752621      1.2727833      0.014597604    177            58             0.029508197  
    196000   1.0057826     -0.20498376     1.5071947      1.302211       0.014803348    176            56             0.033879781  
    197000   0.98415378    -0.21446706     1.4747834      1.2603163      0.014742189    175            54             0.040437158  
    198000   1.0020869     -0.22689229     1.5016568      1.2747645      0.013901227    170            53             0.032786885  
    199000   0.97205277    -0.21938141     1.4566497      1.2372683      0.013750066    174            54             0.034972678  
    200000   0.94853899    -0.20940182     1.4214136      1.2120118      0.014466765    174            52             0.036065574  
    201000   1.0202499     -0.21100398     1.5288745      1.3178705      0.014820451    171            51             0.043715847  
    202000   0.97036951    -0.21465779     1.4541272      1.2394695      0.014653473    177            53             0.042622951  
    203000   0.96849582    -0.21062525     1.4513195      1.2406942      0.01473433     178            55             0.044808743  
    204000   1.0167453     -0.20575686     1.5236228      1.3178659      0.014841942    171            56             0.033879781  
    205000   1.013493      -0.21026162     1.5187491      1.3084875      0.014711862    173            55             0.043715847  
    206000   1.0115103     -0.22000136     1.515778       1.2957766      0.014769966    181            52             0.029508197  
    207000   0.98288698    -0.2243214      1.4728851      1.2485637      0.013789014    184            54             0.027322404  
    208000   0.98376625    -0.1965939      1.4742027      1.2776088      0.014906269    172            53             0.030601093  
    209000   1.0064239     -0.21268127     1.5081558      1.2954746      0.014530129    171            52             0.034972678  
    210000   0.94870796    -0.20930328     1.4216668      1.2123635      0.013479531    177            53             0.043715847  
    211000   0.98988724    -0.20951525     1.4833751      1.2738599      0.014847827    175            52             0.038251366  
    212000   0.96431118    -0.20840089     1.4450487      1.2366478      0.013901327    185            55             0.044808743  
    213000   0.98691654    -0.20970405     1.4789235      1.2692194      0.014766187    188            53             0.040437158  
    214000   0.99127826    -0.22067884     1.4854596      1.2647808      0.014192032    185            54             0.03715847   
    215000   1.0384092     -0.21004903     1.5560868      1.3460377      0.015537316    181            53             0.050273224  
    216000   1.0003918     -0.22967467     1.4991165      1.2694419      0.015557495    177            52             0.056830601  
    217000   1.0253311     -0.22705778     1.5364889      1.3094311      0.015010333    186            53             0.045901639  
    218000   1.0341724     -0.20299107     1.5497378      1.3467467      0.014760187    178            51             0.027322404  
    219000   1.0334028     -0.19248408     1.5485845      1.3561005      0.014903683    176            52             0.038251366  
    220000   0.96701905    -0.18507459     1.4491065      1.2640319      0.014319388    175            51             0.042622951  
    221000   1.0336297     -0.21387975     1.5489245      1.3350448      0.015823606    184            52             0.048087432  
    222000   0.99739281    -0.21303173     1.4946225      1.2815907      0.01455489     177            52             0.036065574  
    223000   1.0079023     -0.21086863     1.5103713      1.2995027      0.015232748    167            53             0.050273224  
    224000   0.99552867    -0.20604292     1.491829       1.2857861      0.015736705    174            50             0.028415301  
    225000   1.0451919     -0.21585526     1.5662508      1.3503955      0.015289878    171            49             0.042622951  
    226000   0.98299066    -0.18781994     1.4730404      1.2852205      0.014415192    173            49             0.039344262  
    227000   0.99319081    -0.18755982     1.4883256      1.3007658      0.014803209    176            48             0.036065574  
    228000   0.97817493    -0.21717316     1.4658239      1.2486507      0.013869195    183            47             0.03715847   
    229000   1.0089323     -0.21104928     1.5119147      1.3008655      0.015489398    170            47             0.049180328  
    230000   0.99746019    -0.21922135     1.4947234      1.2755021      0.014684925    174            48             0.038251366  
    231000   1.0071904     -0.21464303     1.5093044      1.2946613      0.013848605    185            50             0.040437158  
    232000   1.0553406     -0.20331335     1.5814589      1.3781456      0.015341498    182            50             0.045901639  
    233000   1.0075838     -0.19880533     1.509894       1.3110886      0.014585473    176            50             0.03715847   
    234000   0.99558626    -0.20284664     1.4919153      1.2890686      0.014954538    174            45             0.041530055  
    235000   1.0017667     -0.20286308     1.5011769      1.2983138      0.014172156    174            43             0.026229508  
    236000   1.0277111     -0.17430745     1.5400552      1.3657478      0.015089653    183            43             0.030601093  
    237000   1.027123      -0.18156473     1.539174       1.3576093      0.014505081    184            41             0.03715847   
    238000   0.99812608    -0.19069348     1.4957213      1.3050278      0.015201415    181            40             0.048087432  
    239000   0.9746306     -0.2242711      1.4605126      1.2362415      0.013746147    180            40             0.034972678  
    240000   0.99624147    -0.22290256     1.4928971      1.2699946      0.014482009    181            41             0.043715847  
    241000   1.0112705     -0.21425907     1.5154186      1.3011595      0.014537148    182            41             0.043715847  
    242000   0.99213879    -0.20405839     1.4867492      1.2826908      0.014250345    183            40             0.038251366  
    243000   1.0327618     -0.19513936     1.547624       1.3524846      0.015390397    191            40             0.039344262  
    244000   1.045818      -0.20543576     1.567189       1.3617532      0.014886062    194            41             0.036065574  
    245000   0.99741061    -0.20295228     1.4946491      1.2916969      0.014281311    183            42             0.038251366  
    246000   0.95382017    -0.19766929     1.4293276      1.2316583      0.0132029      184            40             0.036065574  
    247000   1.0119768     -0.18325283     1.5164769      1.3332241      0.015433459    173            40             0.041530055  
    248000   0.96488547    -0.19868549     1.4459093      1.2472238      0.014754384    184            39             0.044808743  
    249000   0.95485559    -0.1883495      1.4308792      1.2425297      0.013538794    185            38             0.036065574  
    250000   1.0015644     -0.18495907     1.5008737      1.3159146      0.015605489    185            38             0.039344262  
    251000   0.98463449    -0.20275001     1.4755037      1.2727537      0.015004232    187            37             0.033879781  
    252000   1.024279      -0.20729934     1.5349123      1.3276129      0.014951266    191            38             0.034972678  
    253000   0.98337368    -0.20043879     1.4736144      1.2731756      0.014821789    186            39             0.038251366  
    254000   0.96808277    -0.19370159     1.4507005      1.2569989      0.014648092    197            39             0.036065574  
    255000   0.97494915    -0.22052349     1.46099        1.2404665      0.013414712    198            39             0.032786885  
    256000   1.0148743     -0.20880177     1.520819       1.3120172      0.014290142    197            39             0.039344262  
    257000   1.008917      -0.20419963     1.5118919      1.3076922      0.014070272    196            38             0.028415301  
    258000   0.97750963    -0.20733706     1.4648269      1.2574899      0.014040762    191            38             0.039344262  
    259000   1.0136791     -0.22407473     1.519028       1.2949533      0.014024124    199            39             0.044808743  
    260000   1.0161692     -0.21500815     1.5227594      1.3077512      0.015875208    197            40             0.05136612   
    261000   1.0027008     -0.21776756     1.5025767      1.2848091      0.015382663    194            40             0.052459016  
    262000   1.0267557     -0.23445049     1.5386236      1.3041731      0.01483034     191            40             0.036065574  
    263000   1.0036387     -0.20467503     1.5039821      1.2993071      0.015083235    187            41             0.042622951  
    264000   0.99035929    -0.20665006     1.4840825      1.2774325      0.014826545    180            42             0.041530055  
    265000   1.0498975     -0.21083021     1.5733023      1.3624721      0.015241771    188            41             0.041530055  
    266000   0.97810483    -0.22377217     1.4657188      1.2419467      0.013764944    187            41             0.043715847  
    267000   1.0081892     -0.22454938     1.5108011      1.2862517      0.01446155     185            41             0.030601093  
    268000   1.0080267     -0.23127994     1.5105576      1.2792777      0.014079237    188            41             0.03715847   
    269000   0.98937027    -0.22601446     1.4826005      1.256586       0.014127284    182            43             0.03715847   
    270000   0.99397851    -0.21003192     1.489506       1.2794741      0.015622849    192            42             0.044808743  
    271000   1.0194043     -0.2172439      1.5276073      1.3103634      0.015788953    186            37             0.039344262  
    272000   1.0216925     -0.2171474      1.5310362      1.3138888      0.013822501    186            41             0.033879781  
    273000   1.0235667     -0.18824292     1.5338448      1.3456019      0.014223457    190            41             0.029508197  
    274000   1.0516307     -0.21217016     1.5758995      1.3637293      0.01463774     189            40             0.032786885  
    275000   0.95684508    -0.21881785     1.4338605      1.2150426      0.013241357    184            38             0.039344262  
    276000   1.0254042     -0.21213038     1.5365983      1.3244679      0.014313839    197            38             0.042622951  
    277000   1.0169375     -0.20186331     1.5239107      1.3220474      0.014794938    192            37             0.036065574  
    278000   1.0321534     -0.20566253     1.5467123      1.3410497      0.014811209    201            36             0.034972678  
    279000   1.0469608     -0.18715165     1.5689016      1.38175        0.014023212    202            40             0.025136612  
    280000   0.97014772    -0.20667759     1.4537949      1.2471173      0.014208781    193            39             0.033879781  
    281000   0.98164027    -0.19465724     1.4710168      1.2763596      0.015046863    198            38             0.043715847  
    282000   1.0105475     -0.19475535     1.5143351      1.3195798      0.014030094    192            39             0.031693989  
    283000   0.96489711    -0.19969632     1.4459267      1.2462304      0.013675808    202            39             0.024043716  
    284000   0.99519821    -0.19594088     1.4913338      1.2953929      0.014412311    195            38             0.032786885  
    285000   1.0424097     -0.19590756     1.5620816      1.3661741      0.014876178    195            39             0.025136612  
    286000   1.035639      -0.21078675     1.5519356      1.3411488      0.01480225     195            38             0.036065574  
    287000   0.96866121    -0.20554027     1.4515673      1.2460271      0.014065577    197            42             0.040437158  
    288000   1.0075639     -0.21220024     1.5098642      1.2976639      0.01432532     197            42             0.034972678  
    289000   0.9776776     -0.20839381     1.4650786      1.2566848      0.01561073     204            41             0.044808743  
    290000   1.0135028     -0.21261191     1.5187637      1.3061518      0.014582911    205            40             0.036065574  
    291000   1.0191698     -0.18024234     1.527256       1.3470136      0.01607046     210            38             0.042622951  
    292000   0.99990449    -0.18353442     1.4983863      1.3148519      0.014975185    202            37             0.042622951  
    293000   0.99921853    -0.19018196     1.4973584      1.3071764      0.014703663    195            39             0.03715847   
    294000   0.99404814    -0.19199114     1.4896104      1.2976192      0.013911143    197            39             0.031693989  
    295000   1.0058208     -0.19722528     1.5072521      1.3100268      0.014503056    195            40             0.042622951  
    296000   0.98624792    -0.20957917     1.4779215      1.2683423      0.014214791    194            40             0.045901639  
    297000   0.97906051    -0.20315446     1.467151       1.2639965      0.01418753     195            40             0.032786885  
    298000   0.96160809    -0.19418959     1.440998       1.2468084      0.014028115    192            40             0.034972678  
    299000   1.0193647     -0.21995422     1.527548       1.3075937      0.01461602     192            41             0.036065574  
    300000   1.02986       -0.20733889     1.5432755      1.3359367      0.014839145    194            41             0.030601093  
Loop time of 26.056 on 1 procs for 300000 steps with 1020 atoms

Performance: 4973899.673 tau/day, 11513.657 timesteps/s, 11.744 Matom-step/s
97.7% CPU use with 1 MPI tasks x 1 OpenMP threads

MPI task timing breakdown:
Section |  min time  |  avg time  |  max time  |%varavg| %total
---------------------------------------------------------------
Pair    | 4.2711     | 4.2711     | 4.2711     |   0.0 | 16.39
Neigh   | 7.5485     | 7.5485     | 7.5485     |   0.0 | 28.97
Comm    | 1.2351     | 1.2351     | 1.2351     |   0.0 |  4.74
Output  | 0.34263    | 0.34263    | 0.34263    |   0.0 |  1.31
Modify  | 12.015     | 12.015     | 12.015     |   0.0 | 46.11
Other   |            | 0.6439     |            |       |  2.47

Nlocal:           1020 ave        1020 max        1020 min
Histogram: 1 0 0 0 0 0 0 0 0 0
Nghost:            709 ave         709 max         709 min
Histogram: 1 0 0 0 0 0 0 0 0 0
Neighs:           2793 ave        2793 max        2793 min
Histogram: 1 0 0 0 0 0 0 0 0 0
FullNghs:         5586 ave        5586 max        5586 min
Histogram: 1 0 0 0 0 0 0 0 0 0

Total # of neighbors = 5586
Ave neighs/atom = 5.4764706
Neighbor list builds = 36349
Dangerous builds = 0

Total wall time: 0:00:26
