LAMMPS (22 Jul 2025 - Update 2)
OMP_NUM_THREADS environment is not set. Defaulting to 1 thread.
  using 1 OpenMP thread(s) per MPI task

# 3D Lennard-Jones melt
# 1) Initialization
units lj
dimension 3
atom_style atomic
boundary p p p
# 2) System definition --> Want two separate regions
region simbox block -20 20 -20 20 -20 20
create_box 2 simbox
Created orthogonal box = (-20 -20 -20) to (20 20 20)
  1 by 1 by 1 MPI processor grid
# for creating atoms
region cyl_in cylinder z 0 0 10 INF INF side in
region cyl_out cylinder z 0 0 10 INF INF side out
create_atoms 1 random 1000 34134 cyl_out
Created 1000 atoms
  using lattice units in orthogonal box = (-20 -20 -20) to (20 20 20)
  create_atoms CPU = 0.000 seconds
create_atoms 2 random 150 12756 cyl_in
Created 150 atoms
  using lattice units in orthogonal box = (-20 -20 -20) to (20 20 20)
  create_atoms CPU = 0.000 seconds
# 3) Settings
mass 1 1.0
mass 2 5.0
pair_style lj/cut 4.0
pair_coeff 1 1 1.0 1.0
pair_coeff 2 2 0.5 3.0
# 4) Monitoring
thermo 10
thermo_style custom step ke pe
# 5) Run

minimize 1.0e-6 1.0e-6 1000 10000
Generated 1 of 1 mixed pair_coeff terms from geometric mixing rule
Neighbor list info ...
  update: every = 1 steps, delay = 0 steps, check = yes
  max neighbors/atom: 2000, page size: 100000
  master list distance cutoff = 4.3
  ghost atom cutoff = 4.3
  binsize = 2.15, bins = 19 19 19
  1 neighbor lists, perpetual/occasional/extra = 1 0 0
  (1) pair lj/cut, perpetual
      attributes: half, newton on
      pair build: half/bin/atomonly/newton
      stencil: half/bin/3d
      bin: standard
Per MPI rank memory allocation (min/avg/max) = 4.261 | 4.261 | 4.261 Mbytes
   Step         KinEng         PotEng    
         0   0              54761786     
        10   0              176.91911    
        20   0             -0.11205829   
        30   0             -0.30111788   
        40   0             -0.35254802   
        50   0             -0.38729228   
        60   0             -0.4211304    
        70   0             -0.45426771   
        80   0             -0.48038274   
        90   0             -0.50163775   
       100   0             -0.5215194    
       110   0             -0.53866773   
       120   0             -0.55044406   
       130   0             -0.56366688   
       140   0             -0.57899498   
       150   0             -0.59638217   
       160   0             -0.61002185   
       170   0             -0.62176965   
       180   0             -0.63603073   
       190   0             -0.64318018   
       200   0             -0.65772115   
       210   0             -0.66820977   
       220   0             -0.68752922   
       230   0             -0.70657319   
       240   0             -0.71999868   
       250   0             -0.72853382   
       260   0             -0.74119734   
       270   0             -0.75533533   
       280   0             -0.76884041   
       290   0             -0.78124288   
       300   0             -0.79244781   
       310   0             -0.80338827   
       320   0             -0.81466374   
       330   0             -0.82413959   
       340   0             -0.837461     
       350   0             -0.85081056   
       360   0             -0.86444382   
       370   0             -0.87903982   
       380   0             -0.88956273   
       390   0             -0.90049284   
       400   0             -0.91565869   
       410   0             -0.9267058    
       420   0             -0.93802564   
       430   0             -0.94927996   
       440   0             -0.96039793   
       450   0             -0.97090134   
       460   0             -0.98350266   
       470   0             -0.99564031   
       480   0             -1.0052444    
       490   0             -1.013194     
       500   0             -1.0196859    
       510   0             -1.0294582    
       520   0             -1.0382616    
       530   0             -1.0439204    
       540   0             -1.0514095    
       550   0             -1.0564596    
       560   0             -1.0615631    
       570   0             -1.0681855    
       580   0             -1.0768932    
       590   0             -1.087894     
       600   0             -1.0946737    
       610   0             -1.1016592    
       620   0             -1.1087839    
       630   0             -1.1173683    
       640   0             -1.1248142    
       650   0             -1.134136     
       660   0             -1.1418139    
       670   0             -1.1494473    
       680   0             -1.1571079    
       690   0             -1.1636322    
       700   0             -1.1690851    
       710   0             -1.1745223    
       720   0             -1.179139     
       730   0             -1.1877637    
       740   0             -1.1978405    
       750   0             -1.2058486    
       760   0             -1.2130764    
       770   0             -1.2202754    
       780   0             -1.2310717    
       790   0             -1.2376504    
       800   0             -1.2440947    
       810   0             -1.2485276    
       820   0             -1.2552062    
       830   0             -1.2612077    
       840   0             -1.2681605    
       850   0             -1.2763036    
       860   0             -1.2819092    
       870   0             -1.2896807    
       880   0             -1.2931206    
       890   0             -1.2995394    
       900   0             -1.3034933    
       910   0             -1.3084318    
       920   0             -1.3121073    
       930   0             -1.3211397    
       940   0             -1.3286993    
       950   0             -1.3372378    
       960   0             -1.3460746    
       970   0             -1.3495866    
       980   0             -1.3589933    
       990   0             -1.3642164    
      1000   0             -1.3727825    
Loop time of 0.179092 on 1 procs for 1000 steps with 1150 atoms

87.2% CPU use with 1 MPI tasks x 1 OpenMP threads

Minimization stats:
  Stopping criterion = max iterations
  Energy initial, next-to-last, final = 
      54761786.2800031    -1.372159519446  -1.37278253319125
  Force two-norm initial, final = 1.7244393e+12 12.115989
  Force max component initial, final = 7.5319478e+11 2.3934571
  Final line search alpha, max atom move = 0.017384921 0.041610062
  Iterations, force evaluations = 1000 1940

MPI task timing breakdown:
Section |  min time  |  avg time  |  max time  |%varavg| %total
---------------------------------------------------------------
Pair    | 0.064067   | 0.064067   | 0.064067   |   0.0 | 35.77
Neigh   | 0.065617   | 0.065617   | 0.065617   |   0.0 | 36.64
Comm    | 0.010199   | 0.010199   | 0.010199   |   0.0 |  5.69
Output  | 0.0019546  | 0.0019546  | 0.0019546  |   0.0 |  1.09
Modify  | 0          | 0          | 0          |   0.0 |  0.00
Other   |            | 0.03725    |            |       | 20.80

Nlocal:           1150 ave        1150 max        1150 min
Histogram: 1 0 0 0 0 0 0 0 0 0
Nghost:            965 ave         965 max         965 min
Histogram: 1 0 0 0 0 0 0 0 0 0
Neighs:           3661 ave        3661 max        3661 min
Histogram: 1 0 0 0 0 0 0 0 0 0

Total # of neighbors = 3661
Ave neighs/atom = 3.1834783
Neighbor list builds = 316
Dangerous builds = 0

# PART B - MOLECULAR DYNAMICS
# 4) Monitoring
thermo 50
thermo_style custom step temp etotal pe ke press

# 5) Run
fix mynve all nve
fix mylgv all langevin 1.0 1.0 0.1 10917
timestep 0.005
dump mydmp all atom 100 dump.lj_improved
run 15000
Generated 1 of 1 mixed pair_coeff terms from geometric mixing rule
Per MPI rank memory allocation (min/avg/max) = 3.136 | 3.136 | 3.136 Mbytes
   Step          Temp          TotEng         PotEng         KinEng         Press     
      1000   0             -1.3727825     -1.3727825      0             -0.00043663541
      1050   0.97359585     0.41154667    -1.0475772      1.4591239      0.022026126  
      1100   0.95047833     0.54638176    -0.87809598     1.4244777      0.019368221  
      1150   0.99137726     0.67447332    -0.81129946     1.4857728      0.021411799  
      1200   0.96124289     0.69508494    -0.74552561     1.4406105      0.018430451  
      1250   1.0290655      0.87230625    -0.66994976     1.542256       0.023657635  
      1300   0.97136432     0.80223353    -0.65354595     1.4557795      0.019588465  
      1350   1.0204608      0.89777643    -0.63158367     1.5293601      0.019668144  
      1400   1.0305801      0.94741578    -0.59711017     1.5445259      0.020988755  
      1450   1.0164309      0.92863661    -0.59468395     1.5233206      0.017163711  
      1500   1.036079       1.0188816     -0.53388556     1.5527671      0.020611185  
      1550   1.0390758      1.0132072     -0.5440512      1.5572584      0.017886229  
      1600   0.94618246     0.90725523    -0.51078431     1.4180395      0.017902419  
      1650   0.99409413     0.97787155    -0.51197299     1.4898445      0.017836217  
      1700   1.0096838      1.0151104     -0.49809828     1.5132087      0.018995003  
      1750   0.98698493     0.97706284    -0.50212719     1.47919        0.018055764  
      1800   1.0231432      1.0500632     -0.48331699     1.5333802      0.018933205  
      1850   0.99618758     1.0159953     -0.4769867      1.492982       0.016982759  
      1900   1.0085843      1.0651072     -0.44645364     1.5115608      0.019715216  
      1950   0.97271612     1.021335      -0.43647038     1.4578054      0.017312215  
      2000   0.99776006     1.0606574     -0.43468126     1.4953387      0.017542174  
      2050   0.97755655     1.0400103     -0.42504943     1.4650598      0.018266781  
      2100   1.0322231      1.1080739     -0.43891438     1.5469882      0.018528983  
      2150   0.98791253     1.0707312     -0.40984906     1.4805802      0.018861432  
      2200   1.0024087      1.1009983     -0.40130726     1.5023056      0.018614774  
      2250   1.0009665      1.092174      -0.40797017     1.5001442      0.017621364  
      2300   0.99204771     1.0793801     -0.40739751     1.4867776      0.017192851  
      2350   1.0014643      1.1077258     -0.39316433     1.5008901      0.017996458  
      2400   1.0143192      1.1303724     -0.38978341     1.5201558      0.017439491  
      2450   0.98369708     1.1014886     -0.3727739      1.4742625      0.01789613   
      2500   0.99835254     1.1123673     -0.38385926     1.4962266      0.017439778  
      2550   0.99573483     1.1154984     -0.37680508     1.4923035      0.017667685  
      2600   1.0390183      1.1774238     -0.37974837     1.5571722      0.018697216  
      2650   0.98989727     1.1175235     -0.36603124     1.4835547      0.018488802  
      2700   0.99909857     1.1221313     -0.37521333     1.4973447      0.017123047  
      2750   1.0287915      1.1707938     -0.37105148     1.5418453      0.017956427  
      2800   1.0698316      1.2610993     -0.34225266     1.6033519      0.019615803  
      2850   0.99910026     1.1586606     -0.3386866      1.4973472      0.019704656  
      2900   1.0389506      1.2060198     -0.35105093     1.5570708      0.017339141  
      2950   1.0250438      1.1934976     -0.34273108     1.5362287      0.017835404  
      3000   0.98447489     1.1258965     -0.34953178     1.4754282      0.017083208  
      3050   1.0138962      1.1767531     -0.34276867     1.5195218      0.017650797  
      3100   1.0050678      1.1670095     -0.33928125     1.5062907      0.018362564  
      3150   0.99269697     1.1519848     -0.33576588     1.4877506      0.018474144  
      3200   1.0167488      1.1788957     -0.34490122     1.523797       0.016935566  
      3250   0.98253821     1.138197      -0.33432871     1.4725257      0.018394547  
      3300   0.97566681     1.1355577     -0.32666992     1.4622276      0.016538072  
      3350   0.97827786     1.14983       -0.31631074     1.4661408      0.017821781  
      3400   1.0156964      1.2042556     -0.31796411     1.5222197      0.018713836  
      3450   0.95465969     1.1129393     -0.31780507     1.4307443      0.017237342  
      3500   1.006073       1.188856      -0.31894119     1.5077972      0.017681169  
      3550   0.97165296     1.1254406     -0.33077142     1.4562121      0.016543215  
      3600   1.0034243      1.1814512     -0.32237649     1.5038277      0.01740815   
      3650   0.99241606     1.1814197     -0.30590998     1.4873296      0.017510834  
      3700   0.99760022     1.1755587     -0.31954039     1.4950991      0.016899676  
      3750   1.0046883      1.182445      -0.32327704     1.505722       0.016887754  
      3800   1.0748904      1.293392      -0.31754159     1.6109335      0.018219466  
      3850   0.99567756     1.1818383     -0.31037929     1.4922176      0.016715947  
      3900   1.0306893      1.2424024     -0.30228724     1.5446896      0.017657439  
      3950   0.98731208     1.1777965     -0.30188387     1.4796803      0.015888449  
      4000   0.97061793     1.1567637     -0.29789713     1.4546609      0.017143331  
      4050   1.0037221      1.2044415     -0.29983239     1.5042739      0.016882232  
      4100   1.0114552      1.1985431     -0.31732031     1.5158634      0.017042482  
      4150   0.984283       1.1595052     -0.3156355      1.4751407      0.016043401  
      4200   0.96851204     1.1358829     -0.31562184     1.4515048      0.016000116  
      4250   0.96357332     1.128515      -0.3155881      1.4441031      0.016540674  
      4300   0.99098661     1.1724403     -0.31274701     1.4851873      0.016464949  
      4350   0.99964741     1.1969729     -0.30119433     1.4981672      0.017414267  
      4400   0.99536336     1.1891169     -0.30262986     1.4917467      0.017080836  
      4450   0.95511314     1.123646      -0.30777796     1.4314239      0.015715745  
      4500   1.0247125      1.2329803     -0.30275184     1.5357322      0.017109397  
      4550   1.0143093      1.2153396     -0.30480133     1.520141       0.016504807  
      4600   0.96847086     1.1574385     -0.29400453     1.4514431      0.015473251  
      4650   1.0145073      1.236048      -0.28438964     1.5204377      0.017382219  
      4700   1.0106223      1.2234632     -0.29115211     1.5146153      0.016834566  
      4750   1.0653003      1.3061164     -0.29044443     1.5965609      0.018477949  
      4800   0.97607481     1.1814554     -0.28138368     1.4628391      0.017069753  
      4850   0.98667145     1.1842417     -0.29447853     1.4787202      0.016336553  
      4900   1.0372255      1.2679443     -0.28654114     1.5544854      0.01824743   
      4950   0.98655822     1.1959247     -0.2826258      1.4785505      0.017303247  
      5000   0.97081562     1.161232      -0.29372518     1.4549571      0.01567675   
      5050   1.0351658      1.2672168     -0.28418169     1.5513985      0.018315939  
      5100   1.0214436      1.2538854     -0.27694767     1.5308331      0.01767287   
      5150   0.98416106     1.1918493     -0.28310864     1.4749579      0.016652985  
      5200   0.99965915     1.2219566     -0.27622827     1.4981848      0.017853648  
      5250   1.0134344      1.2392668     -0.27956299     1.5188298      0.01795905   
      5300   0.9749137      1.1770654     -0.28403348     1.4610989      0.017123186  
      5350   0.97117555     1.1741914     -0.2813052      1.4554966      0.016656634  
      5400   0.9551788      1.1504086     -0.28111374     1.4315223      0.016223712  
      5450   0.99586981     1.2153165     -0.27718929     1.4925058      0.01622703   
      5500   1.0147039      1.2599816     -0.2607507      1.5207323      0.018155797  
      5550   0.96463565     1.1769284     -0.26876686     1.4456952      0.01699861   
      5600   1.0076653      1.2390667     -0.27111689     1.5101836      0.017363468  
      5650   1.0405397      1.2891902     -0.27026215     1.5594524      0.018718662  
      5700   0.9824331      1.2157957     -0.2565725      1.4723682      0.018033215  
      5750   1.0027829      1.2371131     -0.26575322     1.5028663      0.017073183  
      5800   0.98931659     1.2303413     -0.25234315     1.4826845      0.01847824   
      5850   0.98309031     1.214173      -0.25918016     1.4733532      0.017946766  
      5900   1.0014365      1.2268413     -0.27400733     1.5008486      0.016899075  
      5950   0.98946451     1.2140979     -0.2688083      1.4829062      0.017132853  
      6000   1.0041798      1.2287394     -0.27622054     1.5049599      0.016574973  
      6050   1.0476113      1.2973244     -0.27272619     1.5700506      0.018630453  
      6100   1.0260147      1.2704997     -0.26718411     1.5376838      0.018713242  
      6150   0.97417949     1.1948611     -0.26513749     1.4599986      0.017216332  
      6200   0.94414626     1.1482485     -0.2667394      1.4149879      0.015679929  
      6250   0.97605737     1.1983194     -0.26449349     1.4628129      0.016996989  
      6300   0.97908019     1.1993746     -0.26796865     1.4673432      0.017450755  
      6350   0.998001       1.2214976     -0.27420215     1.4956998      0.016945915  
      6400   0.99200743     1.2154458     -0.27127144     1.4867172      0.01756345   
      6450   0.98681113     1.2018303     -0.2770992      1.4789295      0.016670108  
      6500   0.97481628     1.1945559     -0.26639703     1.4609529      0.017499431  
      6550   1.0171085      1.2621204     -0.26221566     1.5243361      0.017672458  
      6600   0.98053752     1.2062616     -0.26326576     1.4695273      0.017355135  
      6650   0.95472141     1.1726301     -0.25820673     1.4308368      0.017248771  
      6700   1.0027894      1.2354935     -0.26738258     1.5028761      0.017414718  
      6750   0.98563528     1.2139615     -0.26320575     1.4771673      0.01739095   
      6800   1.0302506      1.2845602     -0.25947185     1.544032       0.018606347  
      6850   1.0058533      1.2418287     -0.26563917     1.5074679      0.018031227  
      6900   1.0263524      1.2744132     -0.26377668     1.5381899      0.019118797  
      6950   0.99381369     1.2239862     -0.26543805     1.4894243      0.01810448   
      7000   0.98554605     1.2230589     -0.25397466     1.4770336      0.017761627  
      7050   0.98054596     1.2281222     -0.24141776     1.46954        0.0187137    
      7100   1.0086646      1.2613575     -0.25032384     1.5116813      0.017649197  
      7150   1.0432096      1.3107617     -0.252692       1.5634537      0.018552919  
      7200   1.0484651      1.3125808     -0.25874937     1.5713301      0.018644457  
      7250   0.97100026     1.2049043     -0.25032959     1.4552339      0.017501285  
      7300   1.0027359      1.244767      -0.25802895     1.502796       0.018019111  
      7350   1.0146856      1.2588752     -0.26182966     1.5207049      0.017816232  
      7400   1.0077735      1.2457745     -0.26457135     1.5103458      0.017997543  
      7450   0.99183794     1.216761      -0.26970219     1.4864632      0.016956172  
      7500   1.0175704      1.2582721     -0.26675617     1.5250283      0.018873529  
      7550   1.0167189      1.2535842     -0.27016807     1.5237522      0.018208171  
      7600   1.0104534      1.2403706     -0.27399153     1.5143621      0.017882921  
      7650   1.0041798      1.2331425     -0.27181739     1.5049598      0.018827751  
      7700   1.0198783      1.2551756     -0.27331166     1.5284872      0.018320252  
      7750   0.98844493     1.2046391     -0.27673902     1.4813781      0.016836364  
      7800   0.98779268     1.2013715     -0.27902912     1.4804006      0.01694917   
      7850   0.97940401     1.1859772     -0.28185128     1.4678285      0.016102941  
      7900   1.0351097      1.283144      -0.26817038     1.5513144      0.018578946  
      7950   1.0005343      1.235998      -0.2634984      1.4994964      0.0178679    
      8000   0.97820445     1.2015624     -0.26446836     1.4660308      0.017041845  
      8050   1.0226001      1.2830744     -0.24949199     1.5325664      0.019188302  
      8100   1.0096471      1.2610899     -0.25206381     1.5131537      0.018157851  
      8150   0.95777847     1.1782215     -0.25719691     1.4354184      0.016707254  
      8200   1.0351921      1.2962539     -0.25518407     1.5514379      0.018206066  
      8250   0.97701872     1.2181207     -0.24613298     1.4642537      0.016749507  
      8300   1.0033645      1.2644753     -0.23926265     1.503738       0.018568463  
      8350   1.0489141      1.315511      -0.25649195     1.5720029      0.017289993  
      8400   0.97911887     1.2108839     -0.25651731     1.4674012      0.016663856  
      8450   1.0117748      1.2627183     -0.25362424     1.5163425      0.016574443  
      8500   0.95758128     1.1965161     -0.23860682     1.4351229      0.015943679  
      8550   1.0481313      1.3272857     -0.24354418     1.5708299      0.017205128  
      8600   1.0049097      1.2531975     -0.25285626     1.5060538      0.016696222  
      8650   0.98753663     1.2307827     -0.24923412     1.4800169      0.016559651  
      8700   1.0119552      1.2706362     -0.24597662     1.5166128      0.017035699  
      8750   1.0003097      1.2645163     -0.23464357     1.4991598      0.017634122  
      8800   1.033574       1.3092629     -0.23974998     1.5490129      0.0183159    
      8850   1.0167708      1.2712953     -0.25253467     1.52383        0.018102492  
      8900   1.0054801      1.2555303     -0.25137832     1.5069086      0.017238213  
      8950   1.0315902      1.3015654     -0.2444743      1.5460397      0.01755008   
      9000   0.97079678     1.2088935     -0.24603538     1.4549289      0.015910993  
      9050   1.0380254      1.3046359     -0.25104822     1.5556842      0.017968524  
      9100   1.0035054      1.2517879     -0.25216137     1.5039492      0.017609025  
      9150   0.98189925     1.2181592     -0.25340898     1.4715681      0.017214849  
      9200   0.98827309     1.2289309     -0.25218964     1.4811206      0.017000471  
      9250   1.026126       1.294248      -0.24360261     1.5378506      0.017821856  
      9300   0.99620804     1.252589      -0.24042368     1.4930127      0.01699361   
      9350   0.99907517     1.2541703     -0.24313927     1.4973096      0.017098553  
      9400   0.98056862     1.2232943     -0.24627961     1.4695739      0.017938946  
      9450   1.0036427      1.2537789     -0.25037608     1.504155       0.016982369  
      9500   0.96858947     1.2051676     -0.24645324     1.4516208      0.016409876  
      9550   1.0170944      1.2711828     -0.25313218     1.524315       0.017136767  
      9600   0.9850089      1.2293518     -0.2468768      1.4762286      0.017272649  
      9650   0.96581257     1.2022971     -0.24516201     1.4474591      0.016325423  
      9700   0.99843696     1.2481546     -0.24819849     1.4963531      0.017012332  
      9750   0.99951948     1.2513371     -0.24663839     1.4979755      0.016293007  
      9800   1.012339       1.2717594     -0.24542862     1.517188       0.017425107  
      9850   1.0075026      1.2698791     -0.24006073     1.5099398      0.018009483  
      9900   1.0340128      1.3091897     -0.24048072     1.5496704      0.018227994  
      9950   0.9939617      1.2491659     -0.24048019     1.4896461      0.016729689  
     10000   1.0097802      1.2832476     -0.2301056      1.5133532      0.019012072  
     10050   0.99206673     1.2499148     -0.23689129     1.4868061      0.017308837  
     10100   0.98657062     1.2483232     -0.23024591     1.4785691      0.018275194  
     10150   0.99460606     1.2553947     -0.23521709     1.4906118      0.018192886  
     10200   0.97838876     1.2310669     -0.23524009     1.466307       0.017621245  
     10250   1.0427463      1.3264253     -0.23633408     1.5627594      0.018440501  
     10300   0.9843768      1.2320249     -0.24325634     1.4752812      0.016373792  
     10350   1.0083214      1.2682903     -0.24287653     1.5111669      0.017507254  
     10400   0.99664771     1.2590285     -0.23464307     1.4936716      0.018204407  
     10450   0.94262656     1.1811145     -0.23159585     1.4127103      0.018004899  
     10500   0.98734857     1.240204      -0.23953103     1.479735       0.017847465  
     10550   1.0094815      1.2698235     -0.24308208     1.5129056      0.017226006  
     10600   0.94140903     1.1699605     -0.24092516     1.4108856      0.016782464  
     10650   1.0293037      1.3119737     -0.23063924     1.5426129      0.019287083  
     10700   0.9883298      1.2609847     -0.22022092     1.4812056      0.018156636  
     10750   0.98929903     1.247832      -0.23482612     1.4826581      0.016183543  
     10800   1.0492952      1.334741      -0.23783318     1.5725742      0.018396051  
     10850   0.96002919     1.196521      -0.24227056     1.4387916      0.017694149  
     10900   1.0011453      1.2670113     -0.23340091     1.5004122      0.018292356  
     10950   1.0086462      1.2836328     -0.22802092     1.5116537      0.018480653  
     11000   1.0042711      1.2757748     -0.22932203     1.5050968      0.017377915  
     11050   1.01577        1.2834101     -0.23892007     1.5223302      0.017510179  
     11100   0.96481497     1.2077468     -0.23821722     1.445964       0.016288015  
     11150   0.98926121     1.2473453     -0.23525621     1.4826015      0.017545168  
     11200   1.0100533      1.2815889     -0.23217365     1.5137625      0.018218262  
     11250   1.0130009      1.2899203     -0.22825969     1.51818        0.018287524  
     11300   1.0158861      1.2807952     -0.2417088      1.522504       0.016933425  
     11350   1.0143374      1.2879979     -0.2321852      1.5201831      0.018054304  
     11400   0.99402384     1.2604665     -0.22927269     1.4897392      0.017544428  
     11450   1.0044944      1.2767642     -0.22866716     1.5054314      0.017442848  
     11500   1.0328599      1.3075026     -0.24044002     1.5479427      0.017321967  
     11550   1.0074029      1.2651621     -0.24462826     1.5097903      0.01649665   
     11600   0.97584316     1.2212864     -0.24120555     1.4624919      0.016796417  
     11650   0.98542666     1.2412789     -0.23557575     1.4768546      0.016836482  
     11700   1.0263605      1.3003855     -0.23781647     1.538202       0.017628727  
     11750   0.98891171     1.2524699     -0.22960779     1.4820777      0.01753484   
     11800   0.99636631     1.2640593     -0.22919056     1.4932499      0.017723616  
     11850   0.99066149     1.2622712     -0.22242884     1.4847001      0.018079179  
     11900   1.0008229      1.2753492     -0.22457983     1.499929       0.018331277  
     11950   1.0156609      1.2921966     -0.22996994     1.5221666      0.018704832  
     12000   0.99225931     1.2437768     -0.24331793     1.4870947      0.017149413  
     12050   1.021345       1.2945335     -0.23615177     1.5306852      0.018856807  
     12100   1.0239655      1.3015962     -0.23301637     1.5346126      0.018870567  
     12150   0.99605128     1.2592769     -0.23350084     1.4927777      0.018546524  
     12200   0.99880453     1.2602602     -0.23664384     1.496904       0.017389818  
     12250   1.012336       1.2798268     -0.23735682     1.5171836      0.017997993  
     12300   1.0149621      1.2860169     -0.23510238     1.5211193      0.017758311  
     12350   1.0394166      1.3215509     -0.23621821     1.5577692      0.018060418  
     12400   0.96470657     1.2161184     -0.22968317     1.4458015      0.016403401  
     12450   0.99856837     1.2692441     -0.22730593     1.4965501      0.01694027   
     12500   0.98791414     1.2549111     -0.22567154     1.4805826      0.016686123  
     12550   1.0212838      1.3125585     -0.21803513     1.5305936      0.017762725  
     12600   0.96493606     1.2177573     -0.22838822     1.4461455      0.016734049  
     12650   1.002934       1.2694754     -0.23361744     1.5030928      0.017342622  
     12700   1.0069638      1.2761865     -0.23294577     1.5091323      0.016972311  
     12750   1.0026833      1.2700967     -0.23262037     1.502717       0.017543837  
     12800   1.0325373      1.3069848     -0.24047439     1.5474592      0.017612859  
     12850   1.0084958      1.2732121     -0.23821617     1.5114283      0.016563841  
     12900   1.0064654      1.2729175     -0.23546788     1.5083854      0.01784029   
     12950   0.98233541     1.2393454     -0.23287636     1.4722218      0.016905476  
     13000   1.0303798      1.3039052     -0.24032059     1.5442258      0.016908027  
     13050   1.0174542      1.2848595     -0.23999463     1.5248541      0.017279132  
     13100   0.95193803     1.1829108     -0.24375461     1.4266654      0.016496904  
     13150   0.9875588      1.2414499     -0.23860015     1.4800501      0.017130137  
     13200   0.95716132     1.2029813     -0.23151226     1.4344935      0.016661631  
     13250   0.96097545     1.201361      -0.23884875     1.4402097      0.016454903  
     13300   0.96634886     1.2122907     -0.23597216     1.4482628      0.016566341  
     13350   0.95531664     1.196851      -0.23487788     1.4317289      0.016431182  
     13400   1.0184543      1.2908767     -0.23547645     1.5263531      0.01706101   
     13450   0.9649185      1.2216597     -0.2244595      1.4461192      0.016857235  
     13500   0.99647841     1.2609979     -0.23241998     1.4934179      0.01690285   
     13550   1.0065094      1.2755088     -0.23294241     1.5084512      0.0178531    
     13600   1.0032832      1.2746527     -0.22896347     1.5036162      0.018248347  
     13650   0.9842273      1.2469491     -0.22810804     1.4750572      0.018100185  
     13700   0.97517605     1.2191032     -0.2423889      1.4614921      0.016370875  
     13750   1.0038578      1.2579118     -0.2465655      1.5044773      0.016910063  
     13800   1.0238563      1.2896532     -0.24479577     1.5344489      0.01697329   
     13850   0.97362489     1.2184806     -0.24068674     1.4591674      0.016744376  
     13900   0.9531165      1.1870371     -0.2413945      1.4284316      0.016467975  
     13950   1.0015546      1.2582235     -0.24280203     1.5010255      0.017197571  
     14000   1.0342876      1.3148153     -0.23526706     1.5500823      0.018469023  
     14050   0.97569613     1.2234853     -0.23878626     1.4622715      0.017416351  
     14100   1.0038265      1.2715878     -0.23284262     1.5044305      0.018713     
     14150   1.0027413      1.2659678     -0.2368363      1.5028041      0.017594081  
     14200   1.0165892      1.2834431     -0.24011463     1.5235578      0.017153925  
     14250   0.9758701      1.2225976     -0.23993469     1.4625323      0.01717208   
     14300   1.0193457      1.2799045     -0.24778445     1.527689       0.016928465  
     14350   1.0140585      1.2718384     -0.24792664     1.519765       0.017217025  
     14400   0.94814383     1.1820946     -0.23888439     1.420979       0.015665043  
     14450   0.97310831     1.2307209     -0.22767233     1.4583932      0.016774794  
     14500   0.97724075     1.2376858     -0.22690064     1.4645865      0.016771856  
     14550   1.0474887      1.3439433     -0.22592342     1.5698667      0.018162982  
     14600   1.0174281      1.2953464     -0.2294687      1.5248151      0.017404489  
     14650   1.0189484      1.3016228     -0.22547068     1.5270935      0.017184182  
     14700   1.0162492      1.2840892     -0.238959       1.5230482      0.016023913  
     14750   1.017897       1.2775066     -0.24801112     1.5255177      0.016320328  
     14800   1.0128075      1.2767393     -0.24115096     1.5178902      0.017091632  
     14850   0.99297347     1.2421367     -0.24602833     1.488165       0.016563692  
     14900   1.0064204      1.2695783     -0.23873956     1.5083179      0.017043095  
     14950   1.0425921      1.3173459     -0.24518231     1.5625282      0.017633158  
     15000   0.99128981     1.2421584     -0.24348337     1.4856417      0.016655045  
     15050   0.97692186     1.2224883     -0.24162028     1.4641085      0.017339983  
     15100   0.98154793     1.2291971     -0.24184455     1.4710416      0.018248163  
     15150   1.0365676      1.3071866     -0.24631267     1.5534993      0.018188585  
     15200   0.95518977     1.1919566     -0.2395822      1.4315388      0.016537402  
     15250   0.98420244     1.2335949     -0.24142505     1.4750199      0.016947338  
     15300   1.0393215      1.3186466     -0.23897997     1.5576265      0.018610401  
     15350   1.0092102      1.2631656     -0.24933328     1.5124989      0.017334458  
     15400   0.97953267     1.226175      -0.2418464      1.4680214      0.017456756  
     15450   0.99825024     1.2564663     -0.23960698     1.4960733      0.017352746  
     15500   0.96616235     1.214727      -0.23325631     1.4479833      0.016989999  
     15550   1.0007373      1.2580457     -0.24175492     1.4998006      0.015781769  
     15600   0.98011832     1.2288165     -0.24008253     1.4688991      0.016208563  
     15650   1.0067555      1.2739376     -0.2348826      1.5088202      0.016854412  
     15700   0.98824465     1.2512202     -0.22985777     1.481078       0.017595517  
     15750   1.0104901      1.2706515     -0.24376566     1.5144172      0.01846393   
     15800   0.99682722     1.2490928     -0.24484781     1.4939406      0.017977624  
     15850   0.99318914     1.2469625     -0.24152576     1.4884882      0.017530011  
     15900   0.98634443     1.2338328     -0.24439735     1.4782301      0.017832286  
     15950   0.9973139      1.2572782     -0.2373918      1.49467        0.017645717  
     16000   0.95436605     1.1924513     -0.23785296     1.4303043      0.016723409  
Loop time of 1.58641 on 1 procs for 15000 steps with 1150 atoms

Performance: 4084682.014 tau/day, 9455.282 timesteps/s, 10.874 Matom-step/s
99.5% CPU use with 1 MPI tasks x 1 OpenMP threads

MPI task timing breakdown:
Section |  min time  |  avg time  |  max time  |%varavg| %total
---------------------------------------------------------------
Pair    | 0.30112    | 0.30112    | 0.30112    |   0.0 | 18.98
Neigh   | 0.45755    | 0.45755    | 0.45755    |   0.0 | 28.84
Comm    | 0.070247   | 0.070247   | 0.070247   |   0.0 |  4.43
Output  | 0.099893   | 0.099893   | 0.099893   |   0.0 |  6.30
Modify  | 0.62086    | 0.62086    | 0.62086    |   0.0 | 39.14
Other   |            | 0.03675    |            |       |  2.32

Nlocal:           1150 ave        1150 max        1150 min
Histogram: 1 0 0 0 0 0 0 0 0 0
Nghost:            935 ave         935 max         935 min
Histogram: 1 0 0 0 0 0 0 0 0 0
Neighs:           3677 ave        3677 max        3677 min
Histogram: 1 0 0 0 0 0 0 0 0 0

Total # of neighbors = 3677
Ave neighs/atom = 3.1973913
Neighbor list builds = 1827
Dangerous builds = 0

# 6) Save system
write_data improved.min.data
System init for write_data ...
Generated 1 of 1 mixed pair_coeff terms from geometric mixing rule


Total wall time: 0:00:01
